-- This reservoir simulation deck is made available under the Open Database
-- License: http://opendatacommons.org/licenses/odbl/1.0/. Any rights in
-- individual contents of the database are licensed under the Database Contents
-- License: http://opendatacommons.org/licenses/dbcl/1.0/

-- Copyright (C) 2015 Statoil

-- This simulation is based on the data given in 
-- 'Ninth SPE Comparative Solution Project:
-- A Reexamination of Black-Oil Simulation',
-- by J.E. Killough,
-- Journal of Petroleum Technology, 1995

-- A dataset from one of the participants was supplied to the 
-- participants of SPE 9. Some of the information in this
-- dataset has been used here as well. 

-- The origin of information or data used in this simulation is 
-- specified in comments. This does not include data whose origin
-- should be obvious to the reader.



-- NOTE: Changes should be made to the data entered in keywords PVTW and ROCK
-- 	 See comments under these keywords
 


-- tHIS FILE HAS BEEN CREATED THANKS THE THE kALC-SHEET OF oPEN oFFICE
-- Grid of SPE 9

SPECGRID
24  25  15  1  F
/

COORD 
0.000000	0.000000	8973.952773	0.000000	0.000000	9332.952773
300.000000	0.000000	9026.047227	300.000000	0.000000	9385.047227
600.000000	0.000000	9078.141680	600.000000	0.000000	9437.141680
900.000000	0.000000	9130.236133	900.000000	0.000000	9489.236133
1200.000000	0.000000	9182.330587	1200.000000	0.000000	9541.330587
1500.000000	0.000000	9234.425040	1500.000000	0.000000	9593.425040
1800.000000	0.000000	9286.519493	1800.000000	0.000000	9645.519493
2100.000000	0.000000	9338.613946	2100.000000	0.000000	9697.613946
2400.000000	0.000000	9390.708400	2400.000000	0.000000	9749.708400
2700.000000	0.000000	9442.802853	2700.000000	0.000000	9801.802853
3000.000000	0.000000	9494.897306	3000.000000	0.000000	9853.897306
3300.000000	0.000000	9546.991760	3300.000000	0.000000	9905.991760
3600.000000	0.000000	9599.086213	3600.000000	0.000000	9958.086213
3900.000000	0.000000	9651.180666	3900.000000	0.000000	10010.180666
4200.000000	0.000000	9703.275120	4200.000000	0.000000	10062.275120
4500.000000	0.000000	9755.369573	4500.000000	0.000000	10114.369573
4800.000000	0.000000	9807.464026	4800.000000	0.000000	10166.464026
5100.000000	0.000000	9859.558479	5100.000000	0.000000	10218.558479
5400.000000	0.000000	9911.652933	5400.000000	0.000000	10270.652933
5700.000000	0.000000	9963.747386	5700.000000	0.000000	10322.747386
6000.000000	0.000000	10015.841839	6000.000000	0.000000	10374.841839
6300.000000	0.000000	10067.936293	6300.000000	0.000000	10426.936293
6600.000000	0.000000	10120.030746	6600.000000	0.000000	10479.030746
6900.000000	0.000000	10172.125199	6900.000000	0.000000	10531.125199
7200.000000	0.000000	10224.219653	7200.000000	0.000000	10583.219653
0.000000	300.000000	8973.952773	0.000000	300.000000	9332.952773
300.000000	300.000000	9026.047227	300.000000	300.000000	9385.047227
600.000000	300.000000	9078.141680	600.000000	300.000000	9437.141680
900.000000	300.000000	9130.236133	900.000000	300.000000	9489.236133
1200.000000	300.000000	9182.330587	1200.000000	300.000000	9541.330587
1500.000000	300.000000	9234.425040	1500.000000	300.000000	9593.425040
1800.000000	300.000000	9286.519493	1800.000000	300.000000	9645.519493
2100.000000	300.000000	9338.613946	2100.000000	300.000000	9697.613946
2400.000000	300.000000	9390.708400	2400.000000	300.000000	9749.708400
2700.000000	300.000000	9442.802853	2700.000000	300.000000	9801.802853
3000.000000	300.000000	9494.897306	3000.000000	300.000000	9853.897306
3300.000000	300.000000	9546.991760	3300.000000	300.000000	9905.991760
3600.000000	300.000000	9599.086213	3600.000000	300.000000	9958.086213
3900.000000	300.000000	9651.180666	3900.000000	300.000000	10010.180666
4200.000000	300.000000	9703.275120	4200.000000	300.000000	10062.275120
4500.000000	300.000000	9755.369573	4500.000000	300.000000	10114.369573
4800.000000	300.000000	9807.464026	4800.000000	300.000000	10166.464026
5100.000000	300.000000	9859.558479	5100.000000	300.000000	10218.558479
5400.000000	300.000000	9911.652933	5400.000000	300.000000	10270.652933
5700.000000	300.000000	9963.747386	5700.000000	300.000000	10322.747386
6000.000000	300.000000	10015.841839	6000.000000	300.000000	10374.841839
6300.000000	300.000000	10067.936293	6300.000000	300.000000	10426.936293
6600.000000	300.000000	10120.030746	6600.000000	300.000000	10479.030746
6900.000000	300.000000	10172.125199	6900.000000	300.000000	10531.125199
7200.000000	300.000000	10224.219653	7200.000000	300.000000	10583.219653
0.000000	600.000000	8973.952773	0.000000	600.000000	9332.952773
300.000000	600.000000	9026.047227	300.000000	600.000000	9385.047227
600.000000	600.000000	9078.141680	600.000000	600.000000	9437.141680
900.000000	600.000000	9130.236133	900.000000	600.000000	9489.236133
1200.000000	600.000000	9182.330587	1200.000000	600.000000	9541.330587
1500.000000	600.000000	9234.425040	1500.000000	600.000000	9593.425040
1800.000000	600.000000	9286.519493	1800.000000	600.000000	9645.519493
2100.000000	600.000000	9338.613946	2100.000000	600.000000	9697.613946
2400.000000	600.000000	9390.708400	2400.000000	600.000000	9749.708400
2700.000000	600.000000	9442.802853	2700.000000	600.000000	9801.802853
3000.000000	600.000000	9494.897306	3000.000000	600.000000	9853.897306
3300.000000	600.000000	9546.991760	3300.000000	600.000000	9905.991760
3600.000000	600.000000	9599.086213	3600.000000	600.000000	9958.086213
3900.000000	600.000000	9651.180666	3900.000000	600.000000	10010.180666
4200.000000	600.000000	9703.275120	4200.000000	600.000000	10062.275120
4500.000000	600.000000	9755.369573	4500.000000	600.000000	10114.369573
4800.000000	600.000000	9807.464026	4800.000000	600.000000	10166.464026
5100.000000	600.000000	9859.558479	5100.000000	600.000000	10218.558479
5400.000000	600.000000	9911.652933	5400.000000	600.000000	10270.652933
5700.000000	600.000000	9963.747386	5700.000000	600.000000	10322.747386
6000.000000	600.000000	10015.841839	6000.000000	600.000000	10374.841839
6300.000000	600.000000	10067.936293	6300.000000	600.000000	10426.936293
6600.000000	600.000000	10120.030746	6600.000000	600.000000	10479.030746
6900.000000	600.000000	10172.125199	6900.000000	600.000000	10531.125199
7200.000000	600.000000	10224.219653	7200.000000	600.000000	10583.219653
0.000000	900.000000	8973.952773	0.000000	900.000000	9332.952773
300.000000	900.000000	9026.047227	300.000000	900.000000	9385.047227
600.000000	900.000000	9078.141680	600.000000	900.000000	9437.141680
900.000000	900.000000	9130.236133	900.000000	900.000000	9489.236133
1200.000000	900.000000	9182.330587	1200.000000	900.000000	9541.330587
1500.000000	900.000000	9234.425040	1500.000000	900.000000	9593.425040
1800.000000	900.000000	9286.519493	1800.000000	900.000000	9645.519493
2100.000000	900.000000	9338.613946	2100.000000	900.000000	9697.613946
2400.000000	900.000000	9390.708400	2400.000000	900.000000	9749.708400
2700.000000	900.000000	9442.802853	2700.000000	900.000000	9801.802853
3000.000000	900.000000	9494.897306	3000.000000	900.000000	9853.897306
3300.000000	900.000000	9546.991760	3300.000000	900.000000	9905.991760
3600.000000	900.000000	9599.086213	3600.000000	900.000000	9958.086213
3900.000000	900.000000	9651.180666	3900.000000	900.000000	10010.180666
4200.000000	900.000000	9703.275120	4200.000000	900.000000	10062.275120
4500.000000	900.000000	9755.369573	4500.000000	900.000000	10114.369573
4800.000000	900.000000	9807.464026	4800.000000	900.000000	10166.464026
5100.000000	900.000000	9859.558479	5100.000000	900.000000	10218.558479
5400.000000	900.000000	9911.652933	5400.000000	900.000000	10270.652933
5700.000000	900.000000	9963.747386	5700.000000	900.000000	10322.747386
6000.000000	900.000000	10015.841839	6000.000000	900.000000	10374.841839
6300.000000	900.000000	10067.936293	6300.000000	900.000000	10426.936293
6600.000000	900.000000	10120.030746	6600.000000	900.000000	10479.030746
6900.000000	900.000000	10172.125199	6900.000000	900.000000	10531.125199
7200.000000	900.000000	10224.219653	7200.000000	900.000000	10583.219653
0.000000	1200.000000	8973.952773	0.000000	1200.000000	9332.952773
300.000000	1200.000000	9026.047227	300.000000	1200.000000	9385.047227
600.000000	1200.000000	9078.141680	600.000000	1200.000000	9437.141680
900.000000	1200.000000	9130.236133	900.000000	1200.000000	9489.236133
1200.000000	1200.000000	9182.330587	1200.000000	1200.000000	9541.330587
1500.000000	1200.000000	9234.425040	1500.000000	1200.000000	9593.425040
1800.000000	1200.000000	9286.519493	1800.000000	1200.000000	9645.519493
2100.000000	1200.000000	9338.613946	2100.000000	1200.000000	9697.613946
2400.000000	1200.000000	9390.708400	2400.000000	1200.000000	9749.708400
2700.000000	1200.000000	9442.802853	2700.000000	1200.000000	9801.802853
3000.000000	1200.000000	9494.897306	3000.000000	1200.000000	9853.897306
3300.000000	1200.000000	9546.991760	3300.000000	1200.000000	9905.991760
3600.000000	1200.000000	9599.086213	3600.000000	1200.000000	9958.086213
3900.000000	1200.000000	9651.180666	3900.000000	1200.000000	10010.180666
4200.000000	1200.000000	9703.275120	4200.000000	1200.000000	10062.275120
4500.000000	1200.000000	9755.369573	4500.000000	1200.000000	10114.369573
4800.000000	1200.000000	9807.464026	4800.000000	1200.000000	10166.464026
5100.000000	1200.000000	9859.558479	5100.000000	1200.000000	10218.558479
5400.000000	1200.000000	9911.652933	5400.000000	1200.000000	10270.652933
5700.000000	1200.000000	9963.747386	5700.000000	1200.000000	10322.747386
6000.000000	1200.000000	10015.841839	6000.000000	1200.000000	10374.841839
6300.000000	1200.000000	10067.936293	6300.000000	1200.000000	10426.936293
6600.000000	1200.000000	10120.030746	6600.000000	1200.000000	10479.030746
6900.000000	1200.000000	10172.125199	6900.000000	1200.000000	10531.125199
7200.000000	1200.000000	10224.219653	7200.000000	1200.000000	10583.219653
0.000000	1500.000000	8973.952773	0.000000	1500.000000	9332.952773
300.000000	1500.000000	9026.047227	300.000000	1500.000000	9385.047227
600.000000	1500.000000	9078.141680	600.000000	1500.000000	9437.141680
900.000000	1500.000000	9130.236133	900.000000	1500.000000	9489.236133
1200.000000	1500.000000	9182.330587	1200.000000	1500.000000	9541.330587
1500.000000	1500.000000	9234.425040	1500.000000	1500.000000	9593.425040
1800.000000	1500.000000	9286.519493	1800.000000	1500.000000	9645.519493
2100.000000	1500.000000	9338.613946	2100.000000	1500.000000	9697.613946
2400.000000	1500.000000	9390.708400	2400.000000	1500.000000	9749.708400
2700.000000	1500.000000	9442.802853	2700.000000	1500.000000	9801.802853
3000.000000	1500.000000	9494.897306	3000.000000	1500.000000	9853.897306
3300.000000	1500.000000	9546.991760	3300.000000	1500.000000	9905.991760
3600.000000	1500.000000	9599.086213	3600.000000	1500.000000	9958.086213
3900.000000	1500.000000	9651.180666	3900.000000	1500.000000	10010.180666
4200.000000	1500.000000	9703.275120	4200.000000	1500.000000	10062.275120
4500.000000	1500.000000	9755.369573	4500.000000	1500.000000	10114.369573
4800.000000	1500.000000	9807.464026	4800.000000	1500.000000	10166.464026
5100.000000	1500.000000	9859.558479	5100.000000	1500.000000	10218.558479
5400.000000	1500.000000	9911.652933	5400.000000	1500.000000	10270.652933
5700.000000	1500.000000	9963.747386	5700.000000	1500.000000	10322.747386
6000.000000	1500.000000	10015.841839	6000.000000	1500.000000	10374.841839
6300.000000	1500.000000	10067.936293	6300.000000	1500.000000	10426.936293
6600.000000	1500.000000	10120.030746	6600.000000	1500.000000	10479.030746
6900.000000	1500.000000	10172.125199	6900.000000	1500.000000	10531.125199
7200.000000	1500.000000	10224.219653	7200.000000	1500.000000	10583.219653
0.000000	1800.000000	8973.952773	0.000000	1800.000000	9332.952773
300.000000	1800.000000	9026.047227	300.000000	1800.000000	9385.047227
600.000000	1800.000000	9078.141680	600.000000	1800.000000	9437.141680
900.000000	1800.000000	9130.236133	900.000000	1800.000000	9489.236133
1200.000000	1800.000000	9182.330587	1200.000000	1800.000000	9541.330587
1500.000000	1800.000000	9234.425040	1500.000000	1800.000000	9593.425040
1800.000000	1800.000000	9286.519493	1800.000000	1800.000000	9645.519493
2100.000000	1800.000000	9338.613946	2100.000000	1800.000000	9697.613946
2400.000000	1800.000000	9390.708400	2400.000000	1800.000000	9749.708400
2700.000000	1800.000000	9442.802853	2700.000000	1800.000000	9801.802853
3000.000000	1800.000000	9494.897306	3000.000000	1800.000000	9853.897306
3300.000000	1800.000000	9546.991760	3300.000000	1800.000000	9905.991760
3600.000000	1800.000000	9599.086213	3600.000000	1800.000000	9958.086213
3900.000000	1800.000000	9651.180666	3900.000000	1800.000000	10010.180666
4200.000000	1800.000000	9703.275120	4200.000000	1800.000000	10062.275120
4500.000000	1800.000000	9755.369573	4500.000000	1800.000000	10114.369573
4800.000000	1800.000000	9807.464026	4800.000000	1800.000000	10166.464026
5100.000000	1800.000000	9859.558479	5100.000000	1800.000000	10218.558479
5400.000000	1800.000000	9911.652933	5400.000000	1800.000000	10270.652933
5700.000000	1800.000000	9963.747386	5700.000000	1800.000000	10322.747386
6000.000000	1800.000000	10015.841839	6000.000000	1800.000000	10374.841839
6300.000000	1800.000000	10067.936293	6300.000000	1800.000000	10426.936293
6600.000000	1800.000000	10120.030746	6600.000000	1800.000000	10479.030746
6900.000000	1800.000000	10172.125199	6900.000000	1800.000000	10531.125199
7200.000000	1800.000000	10224.219653	7200.000000	1800.000000	10583.219653
0.000000	2100.000000	8973.952773	0.000000	2100.000000	9332.952773
300.000000	2100.000000	9026.047227	300.000000	2100.000000	9385.047227
600.000000	2100.000000	9078.141680	600.000000	2100.000000	9437.141680
900.000000	2100.000000	9130.236133	900.000000	2100.000000	9489.236133
1200.000000	2100.000000	9182.330587	1200.000000	2100.000000	9541.330587
1500.000000	2100.000000	9234.425040	1500.000000	2100.000000	9593.425040
1800.000000	2100.000000	9286.519493	1800.000000	2100.000000	9645.519493
2100.000000	2100.000000	9338.613946	2100.000000	2100.000000	9697.613946
2400.000000	2100.000000	9390.708400	2400.000000	2100.000000	9749.708400
2700.000000	2100.000000	9442.802853	2700.000000	2100.000000	9801.802853
3000.000000	2100.000000	9494.897306	3000.000000	2100.000000	9853.897306
3300.000000	2100.000000	9546.991760	3300.000000	2100.000000	9905.991760
3600.000000	2100.000000	9599.086213	3600.000000	2100.000000	9958.086213
3900.000000	2100.000000	9651.180666	3900.000000	2100.000000	10010.180666
4200.000000	2100.000000	9703.275120	4200.000000	2100.000000	10062.275120
4500.000000	2100.000000	9755.369573	4500.000000	2100.000000	10114.369573
4800.000000	2100.000000	9807.464026	4800.000000	2100.000000	10166.464026
5100.000000	2100.000000	9859.558479	5100.000000	2100.000000	10218.558479
5400.000000	2100.000000	9911.652933	5400.000000	2100.000000	10270.652933
5700.000000	2100.000000	9963.747386	5700.000000	2100.000000	10322.747386
6000.000000	2100.000000	10015.841839	6000.000000	2100.000000	10374.841839
6300.000000	2100.000000	10067.936293	6300.000000	2100.000000	10426.936293
6600.000000	2100.000000	10120.030746	6600.000000	2100.000000	10479.030746
6900.000000	2100.000000	10172.125199	6900.000000	2100.000000	10531.125199
7200.000000	2100.000000	10224.219653	7200.000000	2100.000000	10583.219653
0.000000	2400.000000	8973.952773	0.000000	2400.000000	9332.952773
300.000000	2400.000000	9026.047227	300.000000	2400.000000	9385.047227
600.000000	2400.000000	9078.141680	600.000000	2400.000000	9437.141680
900.000000	2400.000000	9130.236133	900.000000	2400.000000	9489.236133
1200.000000	2400.000000	9182.330587	1200.000000	2400.000000	9541.330587
1500.000000	2400.000000	9234.425040	1500.000000	2400.000000	9593.425040
1800.000000	2400.000000	9286.519493	1800.000000	2400.000000	9645.519493
2100.000000	2400.000000	9338.613946	2100.000000	2400.000000	9697.613946
2400.000000	2400.000000	9390.708400	2400.000000	2400.000000	9749.708400
2700.000000	2400.000000	9442.802853	2700.000000	2400.000000	9801.802853
3000.000000	2400.000000	9494.897306	3000.000000	2400.000000	9853.897306
3300.000000	2400.000000	9546.991760	3300.000000	2400.000000	9905.991760
3600.000000	2400.000000	9599.086213	3600.000000	2400.000000	9958.086213
3900.000000	2400.000000	9651.180666	3900.000000	2400.000000	10010.180666
4200.000000	2400.000000	9703.275120	4200.000000	2400.000000	10062.275120
4500.000000	2400.000000	9755.369573	4500.000000	2400.000000	10114.369573
4800.000000	2400.000000	9807.464026	4800.000000	2400.000000	10166.464026
5100.000000	2400.000000	9859.558479	5100.000000	2400.000000	10218.558479
5400.000000	2400.000000	9911.652933	5400.000000	2400.000000	10270.652933
5700.000000	2400.000000	9963.747386	5700.000000	2400.000000	10322.747386
6000.000000	2400.000000	10015.841839	6000.000000	2400.000000	10374.841839
6300.000000	2400.000000	10067.936293	6300.000000	2400.000000	10426.936293
6600.000000	2400.000000	10120.030746	6600.000000	2400.000000	10479.030746
6900.000000	2400.000000	10172.125199	6900.000000	2400.000000	10531.125199
7200.000000	2400.000000	10224.219653	7200.000000	2400.000000	10583.219653
0.000000	2700.000000	8973.952773	0.000000	2700.000000	9332.952773
300.000000	2700.000000	9026.047227	300.000000	2700.000000	9385.047227
600.000000	2700.000000	9078.141680	600.000000	2700.000000	9437.141680
900.000000	2700.000000	9130.236133	900.000000	2700.000000	9489.236133
1200.000000	2700.000000	9182.330587	1200.000000	2700.000000	9541.330587
1500.000000	2700.000000	9234.425040	1500.000000	2700.000000	9593.425040
1800.000000	2700.000000	9286.519493	1800.000000	2700.000000	9645.519493
2100.000000	2700.000000	9338.613946	2100.000000	2700.000000	9697.613946
2400.000000	2700.000000	9390.708400	2400.000000	2700.000000	9749.708400
2700.000000	2700.000000	9442.802853	2700.000000	2700.000000	9801.802853
3000.000000	2700.000000	9494.897306	3000.000000	2700.000000	9853.897306
3300.000000	2700.000000	9546.991760	3300.000000	2700.000000	9905.991760
3600.000000	2700.000000	9599.086213	3600.000000	2700.000000	9958.086213
3900.000000	2700.000000	9651.180666	3900.000000	2700.000000	10010.180666
4200.000000	2700.000000	9703.275120	4200.000000	2700.000000	10062.275120
4500.000000	2700.000000	9755.369573	4500.000000	2700.000000	10114.369573
4800.000000	2700.000000	9807.464026	4800.000000	2700.000000	10166.464026
5100.000000	2700.000000	9859.558479	5100.000000	2700.000000	10218.558479
5400.000000	2700.000000	9911.652933	5400.000000	2700.000000	10270.652933
5700.000000	2700.000000	9963.747386	5700.000000	2700.000000	10322.747386
6000.000000	2700.000000	10015.841839	6000.000000	2700.000000	10374.841839
6300.000000	2700.000000	10067.936293	6300.000000	2700.000000	10426.936293
6600.000000	2700.000000	10120.030746	6600.000000	2700.000000	10479.030746
6900.000000	2700.000000	10172.125199	6900.000000	2700.000000	10531.125199
7200.000000	2700.000000	10224.219653	7200.000000	2700.000000	10583.219653
0.000000	3000.000000	8973.952773	0.000000	3000.000000	9332.952773
300.000000	3000.000000	9026.047227	300.000000	3000.000000	9385.047227
600.000000	3000.000000	9078.141680	600.000000	3000.000000	9437.141680
900.000000	3000.000000	9130.236133	900.000000	3000.000000	9489.236133
1200.000000	3000.000000	9182.330587	1200.000000	3000.000000	9541.330587
1500.000000	3000.000000	9234.425040	1500.000000	3000.000000	9593.425040
1800.000000	3000.000000	9286.519493	1800.000000	3000.000000	9645.519493
2100.000000	3000.000000	9338.613946	2100.000000	3000.000000	9697.613946
2400.000000	3000.000000	9390.708400	2400.000000	3000.000000	9749.708400
2700.000000	3000.000000	9442.802853	2700.000000	3000.000000	9801.802853
3000.000000	3000.000000	9494.897306	3000.000000	3000.000000	9853.897306
3300.000000	3000.000000	9546.991760	3300.000000	3000.000000	9905.991760
3600.000000	3000.000000	9599.086213	3600.000000	3000.000000	9958.086213
3900.000000	3000.000000	9651.180666	3900.000000	3000.000000	10010.180666
4200.000000	3000.000000	9703.275120	4200.000000	3000.000000	10062.275120
4500.000000	3000.000000	9755.369573	4500.000000	3000.000000	10114.369573
4800.000000	3000.000000	9807.464026	4800.000000	3000.000000	10166.464026
5100.000000	3000.000000	9859.558479	5100.000000	3000.000000	10218.558479
5400.000000	3000.000000	9911.652933	5400.000000	3000.000000	10270.652933
5700.000000	3000.000000	9963.747386	5700.000000	3000.000000	10322.747386
6000.000000	3000.000000	10015.841839	6000.000000	3000.000000	10374.841839
6300.000000	3000.000000	10067.936293	6300.000000	3000.000000	10426.936293
6600.000000	3000.000000	10120.030746	6600.000000	3000.000000	10479.030746
6900.000000	3000.000000	10172.125199	6900.000000	3000.000000	10531.125199
7200.000000	3000.000000	10224.219653	7200.000000	3000.000000	10583.219653
0.000000	3300.000000	8973.952773	0.000000	3300.000000	9332.952773
300.000000	3300.000000	9026.047227	300.000000	3300.000000	9385.047227
600.000000	3300.000000	9078.141680	600.000000	3300.000000	9437.141680
900.000000	3300.000000	9130.236133	900.000000	3300.000000	9489.236133
1200.000000	3300.000000	9182.330587	1200.000000	3300.000000	9541.330587
1500.000000	3300.000000	9234.425040	1500.000000	3300.000000	9593.425040
1800.000000	3300.000000	9286.519493	1800.000000	3300.000000	9645.519493
2100.000000	3300.000000	9338.613946	2100.000000	3300.000000	9697.613946
2400.000000	3300.000000	9390.708400	2400.000000	3300.000000	9749.708400
2700.000000	3300.000000	9442.802853	2700.000000	3300.000000	9801.802853
3000.000000	3300.000000	9494.897306	3000.000000	3300.000000	9853.897306
3300.000000	3300.000000	9546.991760	3300.000000	3300.000000	9905.991760
3600.000000	3300.000000	9599.086213	3600.000000	3300.000000	9958.086213
3900.000000	3300.000000	9651.180666	3900.000000	3300.000000	10010.180666
4200.000000	3300.000000	9703.275120	4200.000000	3300.000000	10062.275120
4500.000000	3300.000000	9755.369573	4500.000000	3300.000000	10114.369573
4800.000000	3300.000000	9807.464026	4800.000000	3300.000000	10166.464026
5100.000000	3300.000000	9859.558479	5100.000000	3300.000000	10218.558479
5400.000000	3300.000000	9911.652933	5400.000000	3300.000000	10270.652933
5700.000000	3300.000000	9963.747386	5700.000000	3300.000000	10322.747386
6000.000000	3300.000000	10015.841839	6000.000000	3300.000000	10374.841839
6300.000000	3300.000000	10067.936293	6300.000000	3300.000000	10426.936293
6600.000000	3300.000000	10120.030746	6600.000000	3300.000000	10479.030746
6900.000000	3300.000000	10172.125199	6900.000000	3300.000000	10531.125199
7200.000000	3300.000000	10224.219653	7200.000000	3300.000000	10583.219653
0.000000	3600.000000	8973.952773	0.000000	3600.000000	9332.952773
300.000000	3600.000000	9026.047227	300.000000	3600.000000	9385.047227
600.000000	3600.000000	9078.141680	600.000000	3600.000000	9437.141680
900.000000	3600.000000	9130.236133	900.000000	3600.000000	9489.236133
1200.000000	3600.000000	9182.330587	1200.000000	3600.000000	9541.330587
1500.000000	3600.000000	9234.425040	1500.000000	3600.000000	9593.425040
1800.000000	3600.000000	9286.519493	1800.000000	3600.000000	9645.519493
2100.000000	3600.000000	9338.613946	2100.000000	3600.000000	9697.613946
2400.000000	3600.000000	9390.708400	2400.000000	3600.000000	9749.708400
2700.000000	3600.000000	9442.802853	2700.000000	3600.000000	9801.802853
3000.000000	3600.000000	9494.897306	3000.000000	3600.000000	9853.897306
3300.000000	3600.000000	9546.991760	3300.000000	3600.000000	9905.991760
3600.000000	3600.000000	9599.086213	3600.000000	3600.000000	9958.086213
3900.000000	3600.000000	9651.180666	3900.000000	3600.000000	10010.180666
4200.000000	3600.000000	9703.275120	4200.000000	3600.000000	10062.275120
4500.000000	3600.000000	9755.369573	4500.000000	3600.000000	10114.369573
4800.000000	3600.000000	9807.464026	4800.000000	3600.000000	10166.464026
5100.000000	3600.000000	9859.558479	5100.000000	3600.000000	10218.558479
5400.000000	3600.000000	9911.652933	5400.000000	3600.000000	10270.652933
5700.000000	3600.000000	9963.747386	5700.000000	3600.000000	10322.747386
6000.000000	3600.000000	10015.841839	6000.000000	3600.000000	10374.841839
6300.000000	3600.000000	10067.936293	6300.000000	3600.000000	10426.936293
6600.000000	3600.000000	10120.030746	6600.000000	3600.000000	10479.030746
6900.000000	3600.000000	10172.125199	6900.000000	3600.000000	10531.125199
7200.000000	3600.000000	10224.219653	7200.000000	3600.000000	10583.219653
0.000000	3900.000000	8973.952773	0.000000	3900.000000	9332.952773
300.000000	3900.000000	9026.047227	300.000000	3900.000000	9385.047227
600.000000	3900.000000	9078.141680	600.000000	3900.000000	9437.141680
900.000000	3900.000000	9130.236133	900.000000	3900.000000	9489.236133
1200.000000	3900.000000	9182.330587	1200.000000	3900.000000	9541.330587
1500.000000	3900.000000	9234.425040	1500.000000	3900.000000	9593.425040
1800.000000	3900.000000	9286.519493	1800.000000	3900.000000	9645.519493
2100.000000	3900.000000	9338.613946	2100.000000	3900.000000	9697.613946
2400.000000	3900.000000	9390.708400	2400.000000	3900.000000	9749.708400
2700.000000	3900.000000	9442.802853	2700.000000	3900.000000	9801.802853
3000.000000	3900.000000	9494.897306	3000.000000	3900.000000	9853.897306
3300.000000	3900.000000	9546.991760	3300.000000	3900.000000	9905.991760
3600.000000	3900.000000	9599.086213	3600.000000	3900.000000	9958.086213
3900.000000	3900.000000	9651.180666	3900.000000	3900.000000	10010.180666
4200.000000	3900.000000	9703.275120	4200.000000	3900.000000	10062.275120
4500.000000	3900.000000	9755.369573	4500.000000	3900.000000	10114.369573
4800.000000	3900.000000	9807.464026	4800.000000	3900.000000	10166.464026
5100.000000	3900.000000	9859.558479	5100.000000	3900.000000	10218.558479
5400.000000	3900.000000	9911.652933	5400.000000	3900.000000	10270.652933
5700.000000	3900.000000	9963.747386	5700.000000	3900.000000	10322.747386
6000.000000	3900.000000	10015.841839	6000.000000	3900.000000	10374.841839
6300.000000	3900.000000	10067.936293	6300.000000	3900.000000	10426.936293
6600.000000	3900.000000	10120.030746	6600.000000	3900.000000	10479.030746
6900.000000	3900.000000	10172.125199	6900.000000	3900.000000	10531.125199
7200.000000	3900.000000	10224.219653	7200.000000	3900.000000	10583.219653
0.000000	4200.000000	8973.952773	0.000000	4200.000000	9332.952773
300.000000	4200.000000	9026.047227	300.000000	4200.000000	9385.047227
600.000000	4200.000000	9078.141680	600.000000	4200.000000	9437.141680
900.000000	4200.000000	9130.236133	900.000000	4200.000000	9489.236133
1200.000000	4200.000000	9182.330587	1200.000000	4200.000000	9541.330587
1500.000000	4200.000000	9234.425040	1500.000000	4200.000000	9593.425040
1800.000000	4200.000000	9286.519493	1800.000000	4200.000000	9645.519493
2100.000000	4200.000000	9338.613946	2100.000000	4200.000000	9697.613946
2400.000000	4200.000000	9390.708400	2400.000000	4200.000000	9749.708400
2700.000000	4200.000000	9442.802853	2700.000000	4200.000000	9801.802853
3000.000000	4200.000000	9494.897306	3000.000000	4200.000000	9853.897306
3300.000000	4200.000000	9546.991760	3300.000000	4200.000000	9905.991760
3600.000000	4200.000000	9599.086213	3600.000000	4200.000000	9958.086213
3900.000000	4200.000000	9651.180666	3900.000000	4200.000000	10010.180666
4200.000000	4200.000000	9703.275120	4200.000000	4200.000000	10062.275120
4500.000000	4200.000000	9755.369573	4500.000000	4200.000000	10114.369573
4800.000000	4200.000000	9807.464026	4800.000000	4200.000000	10166.464026
5100.000000	4200.000000	9859.558479	5100.000000	4200.000000	10218.558479
5400.000000	4200.000000	9911.652933	5400.000000	4200.000000	10270.652933
5700.000000	4200.000000	9963.747386	5700.000000	4200.000000	10322.747386
6000.000000	4200.000000	10015.841839	6000.000000	4200.000000	10374.841839
6300.000000	4200.000000	10067.936293	6300.000000	4200.000000	10426.936293
6600.000000	4200.000000	10120.030746	6600.000000	4200.000000	10479.030746
6900.000000	4200.000000	10172.125199	6900.000000	4200.000000	10531.125199
7200.000000	4200.000000	10224.219653	7200.000000	4200.000000	10583.219653
0.000000	4500.000000	8973.952773	0.000000	4500.000000	9332.952773
300.000000	4500.000000	9026.047227	300.000000	4500.000000	9385.047227
600.000000	4500.000000	9078.141680	600.000000	4500.000000	9437.141680
900.000000	4500.000000	9130.236133	900.000000	4500.000000	9489.236133
1200.000000	4500.000000	9182.330587	1200.000000	4500.000000	9541.330587
1500.000000	4500.000000	9234.425040	1500.000000	4500.000000	9593.425040
1800.000000	4500.000000	9286.519493	1800.000000	4500.000000	9645.519493
2100.000000	4500.000000	9338.613946	2100.000000	4500.000000	9697.613946
2400.000000	4500.000000	9390.708400	2400.000000	4500.000000	9749.708400
2700.000000	4500.000000	9442.802853	2700.000000	4500.000000	9801.802853
3000.000000	4500.000000	9494.897306	3000.000000	4500.000000	9853.897306
3300.000000	4500.000000	9546.991760	3300.000000	4500.000000	9905.991760
3600.000000	4500.000000	9599.086213	3600.000000	4500.000000	9958.086213
3900.000000	4500.000000	9651.180666	3900.000000	4500.000000	10010.180666
4200.000000	4500.000000	9703.275120	4200.000000	4500.000000	10062.275120
4500.000000	4500.000000	9755.369573	4500.000000	4500.000000	10114.369573
4800.000000	4500.000000	9807.464026	4800.000000	4500.000000	10166.464026
5100.000000	4500.000000	9859.558479	5100.000000	4500.000000	10218.558479
5400.000000	4500.000000	9911.652933	5400.000000	4500.000000	10270.652933
5700.000000	4500.000000	9963.747386	5700.000000	4500.000000	10322.747386
6000.000000	4500.000000	10015.841839	6000.000000	4500.000000	10374.841839
6300.000000	4500.000000	10067.936293	6300.000000	4500.000000	10426.936293
6600.000000	4500.000000	10120.030746	6600.000000	4500.000000	10479.030746
6900.000000	4500.000000	10172.125199	6900.000000	4500.000000	10531.125199
7200.000000	4500.000000	10224.219653	7200.000000	4500.000000	10583.219653
0.000000	4800.000000	8973.952773	0.000000	4800.000000	9332.952773
300.000000	4800.000000	9026.047227	300.000000	4800.000000	9385.047227
600.000000	4800.000000	9078.141680	600.000000	4800.000000	9437.141680
900.000000	4800.000000	9130.236133	900.000000	4800.000000	9489.236133