-- This reservoir simulation deck is made available under the Open Database
-- License: http://opendatacommons.org/licenses/odbl/1.0/. Any rights in
-- individual contents of the database are licensed under the Database Contents
-- License: http://opendatacommons.org/licenses/dbcl/1.0/

-- Copyright (C) 2015 Statoil

-- This simulation is based on the data given in 
-- 'Ninth SPE Comparative Solution Project:
-- A Reexamination of Black-Oil Simulation',
-- by J.E. Killough,
-- Journal of Petroleum Technology, 1995

-- A dataset from one of the participants was supplied to the 
-- participants of SPE 9. Some of the information in this
-- dataset has been used here as well. 

-- The origin of information or data used in this simulation is 
-- specified in comments. This does not include data whose origin
-- should be obvious to the reader.



-- NOTE: Changes should be made to the data entered in keywords PVTW and ROCK
-- 	 See comments under these keywords
 


-- This file has been created on Syntgrid
-- Grid of SPE 9


SPECGRID
24 25 15 1 F
  /


COORD
 0.000 0.000 9000.000 0.000 0.000 9359.000 
 300.000 0.000 8947.906 300.000 0.000 9306.906 
 600.000 0.000 8895.811 600.000 0.000 9254.811 
 900.000 0.000 8843.717 900.000 0.000 9202.717 
 1200.000 0.000 8791.622 1200.000 0.000 9150.622 
 1500.000 0.000 8739.528 1500.000 0.000 9098.528 
 1800.000 0.000 8687.434 1800.000 0.000 9046.434 
 2100.000 0.000 8635.339 2100.000 0.000 8994.339 
 2400.000 0.000 8583.245 2400.000 0.000 8942.245 
 2700.000 0.000 8531.150 2700.000 0.000 8890.150 
 3000.000 0.000 8479.056 3000.000 0.000 8838.056 
 3300.000 0.000 8426.961 3300.000 0.000 8785.961 
 3600.000 0.000 8374.867 3600.000 0.000 8733.867 
 3900.000 0.000 8322.773 3900.000 0.000 8681.773 
 4200.000 0.000 8270.678 4200.000 0.000 8629.678 
 4500.000 0.000 8218.584 4500.000 0.000 8577.584 
 4800.000 0.000 8166.489 4800.000 0.000 8525.489 
 5100.000 0.000 8114.395 5100.000 0.000 8473.395 
 5400.000 0.000 8062.301 5400.000 0.000 8421.301 
 5700.000 0.000 8010.206 5700.000 0.000 8369.206 
 6000.000 0.000 7958.112 6000.000 0.000 8317.112 
 6300.000 0.000 7906.017 6300.000 0.000 8265.017 
 6600.000 0.000 7853.923 6600.000 0.000 8212.923 
 6900.000 0.000 7801.829 6900.000 0.000 8160.829 
 7200.000 0.000 7749.734 7200.000 0.000 8108.734 
 0.000 300.000 9000.000 0.000 300.000 9359.000 
 300.000 300.000 8947.906 300.000 300.000 9306.906 
 600.000 300.000 8895.811 600.000 300.000 9254.811 
 900.000 300.000 8843.717 900.000 300.000 9202.717 
 1200.000 300.000 8791.622 1200.000 300.000 9150.622 
 1500.000 300.000 8739.528 1500.000 300.000 9098.528 
 1800.000 300.000 8687.434 1800.000 300.000 9046.434 
 2100.000 300.000 8635.339 2100.000 300.000 8994.339 
 2400.000 300.000 8583.245 2400.000 300.000 8942.245 
 2700.000 300.000 8531.150 2700.000 300.000 8890.150 
 3000.000 300.000 8479.056 3000.000 300.000 8838.056 
 3300.000 300.000 8426.961 3300.000 300.000 8785.961 
 3600.000 300.000 8374.867 3600.000 300.000 8733.867 
 3900.000 300.000 8322.773 3900.000 300.000 8681.773 
 4200.000 300.000 8270.678 4200.000 300.000 8629.678 
 4500.000 300.000 8218.584 4500.000 300.000 8577.584 
 4800.000 300.000 8166.489 4800.000 300.000 8525.489 
 5100.000 300.000 8114.395 5100.000 300.000 8473.395 
 5400.000 300.000 8062.301 5400.000 300.000 8421.301 
 5700.000 300.000 8010.206 5700.000 300.000 8369.206 
 6000.000 300.000 7958.112 6000.000 300.000 8317.112 
 6300.000 300.000 7906.017 6300.000 300.000 8265.017 
 6600.000 300.000 7853.923 6600.000 300.000 8212.923 
 6900.000 300.000 7801.829 6900.000 300.000 8160.829 
 7200.000 300.000 7749.734 7200.000 300.000 8108.734 
 0.000 600.000 9000.000 0.000 600.000 9359.000 
 300.000 600.000 8947.906 300.000 600.000 9306.906 
 600.000 600.000 8895.811 600.000 600.000 9254.811 
 900.000 600.000 8843.717 900.000 600.000 9202.717 
 1200.000 600.000 8791.622 1200.000 600.000 9150.622 
 1500.000 600.000 8739.528 1500.000 600.000 9098.528 
 1800.000 600.000 8687.434 1800.000 600.000 9046.434 
 2100.000 600.000 8635.339 2100.000 600.000 8994.339 
 2400.000 600.000 8583.245 2400.000 600.000 8942.245 
 2700.000 600.000 8531.150 2700.000 600.000 8890.150 
 3000.000 600.000 8479.056 3000.000 600.000 8838.056 
 3300.000 600.000 8426.961 3300.000 600.000 8785.961 
 3600.000 600.000 8374.867 3600.000 600.000 8733.867 
 3900.000 600.000 8322.773 3900.000 600.000 8681.773 
 4200.000 600.000 8270.678 4200.000 600.000 8629.678 
 4500.000 600.000 8218.584 4500.000 600.000 8577.584 
 4800.000 600.000 8166.489 4800.000 600.000 8525.489 
 5100.000 600.000 8114.395 5100.000 600.000 8473.395 
 5400.000 600.000 8062.301 5400.000 600.000 8421.301 
 5700.000 600.000 8010.206 5700.000 600.000 8369.206 
 6000.000 600.000 7958.112 6000.000 600.000 8317.112 
 6300.000 600.000 7906.017 6300.000 600.000 8265.017 
 6600.000 600.000 7853.923 6600.000 600.000 8212.923 
 6900.000 600.000 7801.829 6900.000 600.000 8160.829 
 7200.000 600.000 7749.734 7200.000 600.000 8108.734 
 0.000 900.000 9000.000 0.000 900.000 9359.000 
 300.000 900.000 8947.906 300.000 900.000 9306.906 
 600.000 900.000 8895.811 600.000 900.000 9254.811 
 900.000 900.000 8843.717 900.000 900.000 9202.717 
 1200.000 900.000 8791.622 1200.000 900.000 9150.622 
 1500.000 900.000 8739.528 1500.000 900.000 9098.528 
 1800.000 900.000 8687.434 1800.000 900.000 9046.434 
 2100.000 900.000 8635.339 2100.000 900.000 8994.339 
 2400.000 900.000 8583.245 2400.000 900.000 8942.245 
 2700.000 900.000 8531.150 2700.000 900.000 8890.150 
 3000.000 900.000 8479.056 3000.000 900.000 8838.056 
 3300.000 900.000 8426.961 3300.000 900.000 8785.961 
 3600.000 900.000 8374.867 3600.000 900.000 8733.867 
 3900.000 900.000 8322.773 3900.000 900.000 8681.773 
 4200.000 900.000 8270.678 4200.000 900.000 8629.678 
 4500.000 900.000 8218.584 4500.000 900.000 8577.584 
 4800.000 900.000 8166.489 4800.000 900.000 8525.489 
 5100.000 900.000 8114.395 5100.000 900.000 8473.395 
 5400.000 900.000 8062.301 5400.000 900.000 8421.301 
 5700.000 900.000 8010.206 5700.000 900.000 8369.206 
 6000.000 900.000 7958.112 6000.000 900.000 8317.112 
 6300.000 900.000 7906.017 6300.000 900.000 8265.017 
 6600.000 900.000 7853.923 6600.000 900.000 8212.923 
 6900.000 900.000 7801.829 6900.000 900.000 8160.829 
 7200.000 900.000 7749.734 7200.000 900.000 8108.734 
 0.000 1200.000 9000.000 0.000 1200.000 9359.000 
 300.000 1200.000 8947.906 300.000 1200.000 9306.906 
 600.000 1200.000 8895.811 600.000 1200.000 9254.811 
 900.000 1200.000 8843.717 900.000 1200.000 9202.717 
 1200.000 1200.000 8791.622 1200.000 1200.000 9150.622 
 1500.000 1200.000 8739.528 1500.000 1200.000 9098.528 
 1800.000 1200.000 8687.434 1800.000 1200.000 9046.434 
 2100.000 1200.000 8635.339 2100.000 1200.000 8994.339 
 2400.000 1200.000 8583.245 2400.000 1200.000 8942.245 
 2700.000 1200.000 8531.150 2700.000 1200.000 8890.150 
 3000.000 1200.000 8479.056 3000.000 1200.000 8838.056 
 3300.000 1200.000 8426.961 3300.000 1200.000 8785.961 
 3600.000 1200.000 8374.867 3600.000 1200.000 8733.867 
 3900.000 1200.000 8322.773 3900.000 1200.000 8681.773 
 4200.000 1200.000 8270.678 4200.000 1200.000 8629.678 
 4500.000 1200.000 8218.584 4500.000 1200.000 8577.584 
 4800.000 1200.000 8166.489 4800.000 1200.000 8525.489 
 5100.000 1200.000 8114.395 5100.000 1200.000 8473.395 
 5400.000 1200.000 8062.301 5400.000 1200.000 8421.301 
 5700.000 1200.000 8010.206 5700.000 1200.000 8369.206 
 6000.000 1200.000 7958.112 6000.000 1200.000 8317.112 
 6300.000 1200.000 7906.017 6300.000 1200.000 8265.017 
 6600.000 1200.000 7853.923 6600.000 1200.000 8212.923 
 6900.000 1200.000 7801.829 6900.000 1200.000 8160.829 
 7200.000 1200.000 7749.734 7200.000 1200.000 8108.734 
 0.000 1500.000 9000.000 0.000 1500.000 9359.000 
 300.000 1500.000 8947.906 300.000 1500.000 9306.906 
 600.000 1500.000 8895.811 600.000 1500.000 9254.811 
 900.000 1500.000 8843.717 900.000 1500.000 9202.717 
 1200.000 1500.000 8791.622 1200.000 1500.000 9150.622 
 1500.000 1500.000 8739.528 1500.000 1500.000 9098.528 
 1800.000 1500.000 8687.434 1800.000 1500.000 9046.434 
 2100.000 1500.000 8635.339 2100.000 1500.000 8994.339 
 2400.000 1500.000 8583.245 2400.000 1500.000 8942.245 
 2700.000 1500.000 8531.150 2700.000 1500.000 8890.150 
 3000.000 1500.000 8479.056 3000.000 1500.000 8838.056 
 3300.000 1500.000 8426.961 3300.000 1500.000 8785.961 
 3600.000 1500.000 8374.867 3600.000 1500.000 8733.867 
 3900.000 1500.000 8322.773 3900.000 1500.000 8681.773 
 4200.000 1500.000 8270.678 4200.000 1500.000 8629.678 
 4500.000 1500.000 8218.584 4500.000 1500.000 8577.584 
 4800.000 1500.000 8166.489 4800.000 1500.000 8525.489 
 5100.000 1500.000 8114.395 5100.000 1500.000 8473.395 
 5400.000 1500.000 8062.301 5400.000 1500.000 8421.301 
 5700.000 1500.000 8010.206 5700.000 1500.000 8369.206 
 6000.000 1500.000 7958.112 6000.000 1500.000 8317.112 
 6300.000 1500.000 7906.017 6300.000 1500.000 8265.017 
 6600.000 1500.000 7853.923 6600.000 1500.000 8212.923 
 6900.000 1500.000 7801.829 6900.000 1500.000 8160.829 
 7200.000 1500.000 7749.734 7200.000 1500.000 8108.734 
 0.000 1800.000 9000.000 0.000 1800.000 9359.000 
 300.000 1800.000 8947.906 300.000 1800.000 9306.906 
 600.000 1800.000 8895.811 600.000 1800.000 9254.811 
 900.000 1800.000 8843.717 900.000 1800.000 9202.717 
 1200.000 1800.000 8791.622 1200.000 1800.000 9150.622 
 1500.000 1800.000 8739.528 1500.000 1800.000 9098.528 
 1800.000 1800.000 8687.434 1800.000 1800.000 9046.434 
 2100.000 1800.000 8635.339 2100.000 1800.000 8994.339 
 2400.000 1800.000 8583.245 2400.000 1800.000 8942.245 
 2700.000 1800.000 8531.150 2700.000 1800.000 8890.150 
 3000.000 1800.000 8479.056 3000.000 1800.000 8838.056 
 3300.000 1800.000 8426.961 3300.000 1800.000 8785.961 
 3600.000 1800.000 8374.867 3600.000 1800.000 8733.867 
 3900.000 1800.000 8322.773 3900.000 1800.000 8681.773 
 4200.000 1800.000 8270.678 4200.000 1800.000 8629.678 
 4500.000 1800.000 8218.584 4500.000 1800.000 8577.584 
 4800.000 1800.000 8166.489 4800.000 1800.000 8525.489 
 5100.000 1800.000 8114.395 5100.000 1800.000 8473.395 
 5400.000 1800.000 8062.301 5400.000 1800.000 8421.301 
 5700.000 1800.000 8010.206 5700.000 1800.000 8369.206 
 6000.000 1800.000 7958.112 6000.000 1800.000 8317.112 
 6300.000 1800.000 7906.017 6300.000 1800.000 8265.017 
 6600.000 1800.000 7853.923 6600.000 1800.000 8212.923 
 6900.000 1800.000 7801.829 6900.000 1800.000 8160.829 
 7200.000 1800.000 7749.734 7200.000 1800.000 8108.734 
 0.000 2100.000 9000.000 0.000 2100.000 9359.000 
 300.000 2100.000 8947.906 300.000 2100.000 9306.906 
 600.000 2100.000 8895.811 600.000 2100.000 9254.811 
 900.000 2100.000 8843.717 900.000 2100.000 9202.717 
 1200.000 2100.000 8791.622 1200.000 2100.000 9150.622 
 1500.000 2100.000 8739.528 1500.000 2100.000 9098.528 
 1800.000 2100.000 8687.434 1800.000 2100.000 9046.434 
 2100.000 2100.000 8635.339 2100.000 2100.000 8994.339 
 2400.000 2100.000 8583.245 2400.000 2100.000 8942.245 
 2700.000 2100.000 8531.150 2700.000 2100.000 8890.150 
 3000.000 2100.000 8479.056 3000.000 2100.000 8838.056 
 3300.000 2100.000 8426.961 3300.000 2100.000 8785.961 
 3600.000 2100.000 8374.867 3600.000 2100.000 8733.867 
 3900.000 2100.000 8322.773 3900.000 2100.000 8681.773 
 4200.000 2100.000 8270.678 4200.000 2100.000 8629.678 
 4500.000 2100.000 8218.584 4500.000 2100.000 8577.584 
 4800.000 2100.000 8166.489 4800.000 2100.000 8525.489 
 5100.000 2100.000 8114.395 5100.000 2100.000 8473.395 
 5400.000 2100.000 8062.301 5400.000 2100.000 8421.301 
 5700.000 2100.000 8010.206 5700.000 2100.000 8369.206 
 6000.000 2100.000 7958.112 6000.000 2100.000 8317.112 
 6300.000 2100.000 7906.017 6300.000 2100.000 8265.017 
 6600.000 2100.000 7853.923 6600.000 2100.000 8212.923 
 6900.000 2100.000 7801.829 6900.000 2100.000 8160.829 
 7200.000 2100.000 7749.734 7200.000 2100.000 8108.734 
 0.000 2400.000 9000.000 0.000 2400.000 9359.000 
 300.000 2400.000 8947.906 300.000 2400.000 9306.906 
 600.000 2400.000 8895.811 600.000 2400.000 9254.811 
 900.000 2400.000 8843.717 900.000 2400.000 9202.717 
 1200.000 2400.000 8791.622 1200.000 2400.000 9150.622 
 1500.000 2400.000 8739.528 1500.000 2400.000 9098.528 
 1800.000 2400.000 8687.434 1800.000 2400.000 9046.434 
 2100.000 2400.000 8635.339 2100.000 2400.000 8994.339 
 2400.000 2400.000 8583.245 2400.000 2400.000 8942.245 
 2700.000 2400.000 8531.150 2700.000 2400.000 8890.150 
 3000.000 2400.000 8479.056 3000.000 2400.000 8838.056 
 3300.000 2400.000 8426.961 3300.000 2400.000 8785.961 
 3600.000 2400.000 8374.867 3600.000 2400.000 8733.867 
 3900.000 2400.000 8322.773 3900.000 2400.000 8681.773 
 4200.000 2400.000 8270.678 4200.000 2400.000 8629.678 
 4500.000 2400.000 8218.584 4500.000 2400.000 8577.584 
 4800.000 2400.000 8166.489 4800.000 2400.000 8525.489 
 5100.000 2400.000 8114.395 5100.000 2400.000 8473.395 
 5400.000 2400.000 8062.301 5400.000 2400.000 8421.301 
 5700.000 2400.000 8010.206 5700.000 2400.000 8369.206 
 6000.000 2400.000 7958.112 6000.000 2400.000 8317.112 
 6300.000 2400.000 7906.017 6300.000 2400.000 8265.017 
 6600.000 2400.000 7853.923 6600.000 2400.000 8212.923 
 6900.000 2400.000 7801.829 6900.000 2400.000 8160.829 
 7200.000 2400.000 7749.734 7200.000 2400.000 8108.734 
 0.000 2700.000 9000.000 0.000 2700.000 9359.000 
 300.000 2700.000 8947.906 300.000 2700.000 9306.906 
 600.000 2700.000 8895.811 600.000 2700.000 9254.811 
 900.000 2700.000 8843.717 900.000 2700.000 9202.717 
 1200.000 2700.000 8791.622 1200.000 2700.000 9150.622 
 1500.000 2700.000 8739.528 1500.000 2700.000 9098.528 
 1800.000 2700.000 8687.434 1800.000 2700.000 9046.434 
 2100.000 2700.000 8635.339 2100.000 2700.000 8994.339 
 2400.000 2700.000 8583.245 2400.000 2700.000 8942.245 
 2700.000 2700.000 8531.150 2700.000 2700.000 8890.150 
 3000.000 2700.000 8479.056 3000.000 2700.000 8838.056 
 3300.000 2700.000 8426.961 3300.000 2700.000 8785.961 
 3600.000 2700.000 8374.867 3600.000 2700.000 8733.867 
 3900.000 2700.000 8322.773 3900.000 2700.000 8681.773 
 4200.000 2700.000 8270.678 4200.000 2700.000 8629.678 
 4500.000 2700.000 8218.584 4500.000 2700.000 8577.584 
 4800.000 2700.000 8166.489 4800.000 2700.000 8525.489 
 5100.000 2700.000 8114.395 5100.000 2700.000 8473.395 
 5400.000 2700.000 8062.301 5400.000 2700.000 8421.301 
 5700.000 2700.000 8010.206 5700.000 2700.000 8369.206 
 6000.000 2700.000 7958.112 6000.000 2700.000 8317.112 
 6300.000 2700.000 7906.017 6300.000 2700.000 8265.017 
 6600.000 2700.000 7853.923 6600.000 2700.000 8212.923 
 6900.000 2700.000 7801.829 6900.000 2700.000 8160.829 
 7200.000 2700.000 7749.734 7200.000 2700.000 8108.734 
 0.000 3000.000 9000.000 0.000 3000.000 9359.000 
 300.000 3000.000 8947.906 300.000 3000.000 9306.906 
 600.000 3000.000 8895.811 600.000 3000.000 9254.811 
 900.000 3000.000 8843.717 900.000 3000.000 9202.717 
 1200.000 3000.000 8791.622 1200.000 3000.000 9150.622 
 1500.000 3000.000 8739.528 1500.000 3000.000 9098.528 
 1800.000 3000.000 8687.434 1800.000 3000.000 9046.434 
 2100.000 3000.000 8635.339 2100.000 3000.000 8994.339 
 2400.000 3000.000 8583.245 2400.000 3000.000 8942.245 
 2700.000 3000.000 8531.150 2700.000 3000.000 8890.150 
 3000.000 3000.000 8479.056 3000.000 3000.000 8838.056 
 3300.000 3000.000 8426.961 3300.000 3000.000 8785.961 
 3600.000 3000.000 8374.867 3600.000 3000.000 8733.867 
 3900.000 3000.000 8322.773 3900.000 3000.000 8681.773 
 4200.000 3000.000 8270.678 4200.000 3000.000 8629.678 
 4500.000 3000.000 8218.584 4500.000 3000.000 8577.584 
 4800.000 3000.000 8166.489 4800.000 3000.000 8525.489 
 5100.000 3000.000 8114.395 5100.000 3000.000 8473.395 
 5400.000 3000.000 8062.301 5400.000 3000.000 8421.301 
 5700.000 3000.000 8010.206 5700.000 3000.000 8369.206 
 6000.000 3000.000 7958.112 6000.000 3000.000 8317.112 
 6300.000 3000.000 7906.017 6300.000 3000.000 8265.017 
 6600.000 3000.000 7853.923 6600.000 3000.000 8212.923 
 6900.000 3000.000 7801.829 6900.000 3000.000 8160.829 
 7200.000 3000.000 7749.734 7200.000 3000.000 8108.734 
 0.000 3300.000 9000.000 0.000 3300.000 9359.000 
 300.000 3300.000 8947.906 300.000 3300.000 9306.906 
 600.000 3300.000 8895.811 600.000 3300.000 9254.811 
 900.000 3300.000 8843.717 900.000 3300.000 9202.717 
 1200.000 3300.000 8791.622 1200.000 3300.000 9150.622 
 1500.000 3300.000 8739.528 1500.000 3300.000 9098.528 
 1800.000 3300.000 8687.434 1800.000 3300.000 9046.434 
 2100.000 3300.000 8635.339 2100.000 3300.000 8994.339 
 2400.000 3300.000 8583.245 2400.000 3300.000 8942.245 
 2700.000 3300.000 8531.150 2700.000 3300.000 8890.150 
 3000.000 3300.000 8479.056 3000.000 3300.000 8838.056 
 3300.000 3300.000 8426.961 3300.000 3300.000 8785.961 
 3600.000 3300.000 8374.867 3600.000 3300.000 8733.867 
 3900.000 3300.000 8322.773 3900.000 3300.000 8681.773 
 4200.000 3300.000 8270.678 4200.000 3300.000 8629.678 
 4500.000 3300.000 8218.584 4500.000 3300.000 8577.584 
 4800.000 3300.000 8166.489 4800.000 3300.000 8525.489 
 5100.000 3300.000 8114.395 5100.000 3300.000 8473.395 
 5400.000 3300.000 8062.301 5400.000 3300.000 8421.301 
 5700.000 3300.000 8010.206 5700.000 3300.000 8369.206 
 6000.000 3300.000 7958.112 6000.000 3300.000 8317.112 
 6300.000 3300.000 7906.017 6300.000 3300.000 8265.017 
 6600.000 3300.000 7853.923 6600.000 3300.000 8212.923 
 6900.000 3300.000 7801.829 6900.000 3300.000 8160.829 
 7200.000 3300.000 7749.734 7200.000 3300.000 8108.734 
 0.000 3600.000 9000.000 0.000 3600.000 9359.000 
 300.000 3600.000 8947.906 300.000 3600.000 9306.906 
 600.000 3600.000 8895.811 600.000 3600.000 9254.811 
 900.000 3600.000 8843.717 900.000 3600.000 9202.717 
 1200.000 3600.000 8791.622 1200.000 3600.000 9150.622 
 1500.000 3600.000 8739.528 1500.000 3600.000 9098.528 
 1800.000 3600.000 8687.434 1800.000 3600.000 9046.434 
 2100.000 3600.000 8635.339 2100.000 3600.000 8994.339 
 2400.000 3600.000 8583.245 2400.000 3600.000 8942.245 
 2700.000 3600.000 8531.150 2700.000 3600.000 8890.150 
 3000.000 3600.000 8479.056 3000.000 3600.000 8838.056 
 3300.000 3600.000 8426.961 3300.000 3600.000 8785.961 
 3600.000 3600.000 8374.867 3600.000 3600.000 8733.867 
 3900.000 3600.000 8322.773 3900.000 3600.000 8681.773 
 4200.000 3600.000 8270.678 4200.000 3600.000 8629.678 
 4500.000 3600.000 8218.584 4500.000 3600.000 8577.584 
 4800.000 3600.000 8166.489 4800.000 3600.000 8525.489 
 5100.000 3600.000 8114.395 5100.000 3600.000 8473.395 
 5400.000 3600.000 8062.301 5400.000 3600.000 8421.301 
 5700.000 3600.000 8010.206 5700.000 3600.000 8369.206 
 6000.000 3600.000 7958.112 6000.000 3600.000 8317.112 
 6300.000 3600.000 7906.017 6300.000 3600.000 8265.017 
 6600.000 3600.000 7853.923 6600.000 3600.000 8212.923 
 6900.000 3600.000 7801.829 6900.000 3600.000 8160.829 
 7200.000 3600.000 7749.734 7200.000 3600.000 8108.734 
 0.000 3900.000 9000.000 0.000 3900.000 9359.000 
 300.000 3900.000 8947.906 300.000 3900.000 9306.906 
 600.000 3900.000 8895.811 600.000 3900.000 9254.811 
 900.000 3900.000 8843.717 900.000 3900.000 9202.717 
 1200.000 3900.000 8791.622 1200.000 3900.000 9150.622 
 1500.000 3900.000 8739.528 1500.000 3900.000 9098.528 
 1800.000 3900.000 8687.434 1800.000 3900.000 9046.434 
 2100.000 3900.000 8635.339 2100.000 3900.000 8994.339 
 2400.000 3900.000 8583.245 2400.000 3900.000 8942.245 
 2700.000 3900.000 8531.150 2700.000 3900.000 8890.150 
 3000.000 3900.000 8479.056 3000.000 3900.000 8838.056 
 3300.000 3900.000 8426.961 3300.000 3900.000 8785.961 
 3600.000 3900.000 8374.867 3600.000 3900.000 8733.867 
 3900.000 3900.000 8322.773 3900.000 3900.000 8681.773 
 4200.000 3900.000 8270.678 4200.000 3900.000 8629.678 
 4500.000 3900.000 8218.584 4500.000 3900.000 8577.584 
 4800.000 3900.000 8166.489 4800.000 3900.000 8525.489 
 5100.000 3900.000 8114.395 5100.000 3900.000 8473.395 
 5400.000 3900.000 8062.301 5400.000 3900.000 8421.301 
 5700.000 3900.000 8010.206 5700.000 3900.000 8369.206 
 6000.000 3900.000 7958.112 6000.000 3900.000 8317.112 
 6300.000 3900.000 7906.017 6300.000 3900.000 8265.017 
 6600.000 3900.000 7853.923 6600.000 3900.000 8212.923 
 6900.000 3900.000 7801.829 6900.000 3900.000 8160.829 
 7200.000 3900.000 7749.734 7200.000 3900.000 8108.734 
 0.000 4200.000 9000.000 0.000 4200.000 9359.000 
 300.000 4200.000 8947.906 300.000 4200.000 9306.906 
 600.000 4200.000 8895.811 600.000 4200.000 9254.811 
 900.000 4200.000 8843.717 900.000 4200.000 9202.717 
 1200.000 4200.000 8791.622 1200.000 4200.000 9150.622 
 1500.000 4200.000 8739.528 1500.000 4200.000 9098.528 
 1800.000 4200.000 8687.434 1800.000 4200.000 9046.434 
 2100.000 4200.000 8635.339 2100.000 4200.000 8994.339 
 2400.000 4200.000 8583.245 2400.000 4200.000 8942.245 
 2700.000 4200.000 8531.150 2700.000 4200.000 8890.150 
 3000.000 4200.000 8479.056 3000.000 4200.000 8838.056 
 3300.000 4200.000 8426.961 3300.000 4200.000 8785.961 
 3600.000 4200.000 8374.867 3600.000 4200.000 8733.867 
 3900.000 4200.000 8322.773 3900.000 4200.000 8681.773 
 4200.000 4200.000 8270.678 4200.000 4200.000 8629.678 
 4500.000 4200.000 8218.584 4500.000 4200.000 8577.584 
 4800.000 4200.000 8166.489 4800.000 4200.000 8525.489 
 5100.000 4200.000 8114.395 5100.000 4200.000 8473.395 
 5400.000 4200.000 8062.301 5400.000 4200.000 8421.301 
 5700.000 4200.000 8010.206 5700.000 4200.000 8369.206 
 6000.000 4200.000 7958.112 6000.000 4200.000 8317.112 
 6300.000 4200.000 7906.017 6300.000 4200.000 8265.017 
 6600.000 4200.000 7853.923 6600.000 4200.000 8212.923 
 6900.000 4200.000 7801.829 6900.000 4200.000 8160.829 
 7200.000 4200.000 7749.734 7200.000 4200.000 8108.734 
 0.000 4500.000 9000.000 0.000 4500.000 9359.000 
 300.000 4500.000 8947.906 300.000 4500.000 9306.906 
 600.000 4500.000 8895.811 600.000 4500.000 9254.811 
 900.000 4500.000 8843.717 900.000 4500.000 9202.717 
 1200.000 4500.000 8791.622 1200.000 4500.000 9150.622 
 1500.000 4500.000 8739.528 1500.000 4500.000 9098.528 
 1800.000 4500.000 8687.434 1800.000 4500.000 9046.434 
 2100.000 4500.000 8635.339 2100.000 4500.000 8994.339 
 2400.000 4500.000 8583.245 2400.000 4500.000 8942.245 
 2700.000 4500.000 8531.150 2700.000 4500.000 8890.150 
 3000.000 4500.000 8479.056 3000.000 4500.000 8838.056 
 3300.000 4500.000 8426.961 3300.000 4500.000 8785.961 
 3600.000 4500.000 8374.867 3600.000 4500.000 8733.867 
 3900.000 4500.000 8322.773 3900.000 4500.000 8681.773 
 4200.000 4500.000 8270.678 4200.000 4500.000 8629.678 
 4500.000 4500.000 8218.584 4500.000 4500.000 8577.584 
 4800.000 4500.000 8166.489 4800.000 4500.000 8525.489 
 5100.000 4500.000 8114.395 5100.000 4500.000 8473.395 
 5400.000 4500.000 8062.301 5400.000 4500.000 8421.301 
 5700.000 4500.000 8010.206 5700.000 4500.000 8369.206 
 6000.000 4500.000 7958.112 6000.000 4500.000 8317.112 
 6300.000 4500.000 7906.017 6300.000 4500.000 8265.017 
 6600.000 4500.000 7853.923 6600.000 4500.000 8212.923 
 6900.000 4500.000 7801.829 6900.000 4500.000 8160.829 
 7200.000 4500.000 7749.734 7200.000 4500.000 8108.734 
 0.000 4800.000 9000.000 0.000 4800.000 9359.000 
 300.000 4800.000 8947.906 300.000 4800.000 9306.906 
 600.000 4800.000 8895.811 600.000 4800.000 9254.811 
 900.000 4800.000 8843.717 900.000 4800.000 9202.717 
 1200.000 4800.000 8791.622 1200.000 4800.000 9150.622 
 1500.000 4800.000 8739.528 1500.000 4800.000 9098.528 
 1800.000 4800.000 8687.434 1800.000 4800.000 9046.434 
 2100.000 4800.000 8635.339 2100.000 4800.000 8994.339 
 2400.000 4800.000 8583.245 2400.000 4800.000 8942.245 
 2700.000 4800.000 8531.150 2700.000 4800.000 8890.150 
 3000.000 4800.000 8479.056 3000.000 4800.000 8838.056 
 3300.000 4800.000 8426.961 3300.000 4800.000 8785.961 
 3600.000 4800.000 8374.867 3600.000 4800.000 8733.867 
 3900.000 4800.000 8322.773 3900.000 4800.000 8681.773 
 4200.000 4800.000 8270.678 4200.000 4800.000 8629.678 
 4500.000 4800.000 8218.584 4500.000 4800.000 8577.584 
 4800.000 4800.000 8166.489 4800.000 4800.000 8525.489 
 5100.000 4800.000 8114.395 5100.000 4800.000 8473.395 
 5400.000 4800.000 8062.301 5400.000 4800.000 8421.301 
 5700.000 4800.000 8010.206 5700.000 4800.000 8369.206 
 6000.000 4800.000 7958.112 6000.000 4800.000 8317.112 
 6300.000 4800.000 7906.017 6300.000 4800.000 8265.017 
 6600.000 4800.000 7853.923 6600.000 4800.000 8212.923 
 6900.000 4800.000 7801.829 6900.000 4800.000 8160.829 
 7200.000 4800.000 7749.734 7200.000 4800.000 8108.734 
 0.000 5100.000 9000.000 0.000 5100.000 9359.000 
 300.000 5100.000 8947.906 300.000 5100.000 9306.906 
 600.000 5100.000 8895.811 600.000 5100.000 9254.811 
 900.000 5100.000 8843.717 900.000 5100.000 9202.717 
 1200.000 5100.000 8791.622 1200.000 5100.000 9150.622 
 1500.000 5100.000 8739.528 1500.000 5100.000 9098.528 
 1800.000 5100.000 8687.434 1800.000 5100.000 9046.434 
 2100.000 5100.000 8635.339 2100.000 5100.000 8994.339 
 2400.000 5100.000 8583.245 2400.000 5100.000 8942.245 
 2700.000 5100.000 8531.150 2700.000 5100.000 8890.150 
 3000.000 5100.000 8479.056 3000.000 5100.000 8838.056 
 3300.000 5100.000 8426.961 3300.000 5100.000 8785.961 
 3600.000 5100.000 8374.867 3600.000 5100.000 8733.867 
 3900.000 5100.000 8322.773 3900.000 5100.000 8681.773 
 4200.000 5100.000 8270.678 4200.000 5100.000 8629.678 
 4500.000 5100.000 8218.584 4500.000 5100.000 8577.584 
 4800.000 5100.000 8166.489 4800.000 5100.000 8525.489 
 5100.000 5100.000 8114.395 5100.000 5100.000 8473.395 
 5400.000 5100.000 8062.301 5400.000 5100.000 8421.301 
 5700.000 5100.000 8010.206 5700.000 5100.000 8369.206 
 6000.000 5100.000 7958.112 6000.000 5100.000 8317.112 
 6300.000 5100.000 7906.017 6300.000 5100.000 8265.017 
 6600.000 5100.000 7853.923 6600.000 5100.000 8212.923 
 6900.000 5100.000 7801.829 6900.000 5100.000 8160.829 
 7200.000 5100.000 7749.734 7200.000 5100.000 8108.734 
 0.000 5400.000 9000.000 0.000 5400.000 9359.000 
 300.000 5400.000 8947.906 300.000 5400.000 9306.906 
 600.000 5400.000 8895.811 600.000 5400.000 9254.811 
 900.000 5400.000 8843.717 900.000 5400.000 9202.717 
 1200.000 5400.000 8791.622 1200.000 5400.000 9150.622 
 1500.000 5400.000 8739.528 1500.000 5400.000 9098.528 
 1800.000 5400.000 8687.434 1800.000 5400.000 9046.434 
 2100.000 5400.000 8635.339 2100.000 5400.000 8994.339 
 2400.000 5400.000 8583.245 2400.000 5400.000 8942.245 
 2700.000 5400.000 8531.150 2700.000 5400.000 8890.150 
 3000.000 5400.000 8479.056 3000.000 5400.000 8838.056 
 3300.000 5400.000 8426.961 3300.000 5400.000 8785.961 
 3600.000 5400.000 8374.867 3600.000 5400.000 8733.867 
 3900.000 5400.000 8322.773 3900.000 5400.000 8681.773 
 4200.000 5400.000 8270.678 4200.000 5400.000 8629.678 
 4500.000 5400.000 8218.584 4500.000 5400.000 8577.584 
 4800.000 5400.000 8166.489 4800.000 5400.000 8525.489 
 5100.000 5400.000 8114.395 5100.000 5400.000 8473.395 
 5400.000 5400.000 8062.301 5400.000 5400.000 8421.301 
 5700.000 5400.000 8010.206 5700.000 5400.000 8369.206 
 6000.000 5400.000 7958.112 6000.000 5400.000 8317.112 
 6300.000 5400.000 7906.017 6300.000 5400.000 8265.017 
 6600.000 5400.000 7853.923 6600.000 5400.000 8212.923 
 6900.000 5400.000 7801.829 6900.000 5400.000 8160.829 
 7200.000 5400.000 7749.734 7200.000 5400.000 8108.734 
 0.000 5700.000 9000.000 0.000 5700.000 9359.000 
 300.000 5700.000 8947.906 300.000 5700.000 9306.906 
 600.000 5700.000 8895.811 600.000 5700.000 9254.811 
 900.000 5700.000 8843.717 900.000 5700.000 9202.717 
 1200.000 5700.000 8791.622 1200.000 5700.000 9150.622 
 1500.000 5700.000 8739.528 1500.000 5700.000 9098.528 
 1800.000 5700.000 8687.434 1800.000 5700.000 9046.434 
 2100.000 5700.000 8635.339 2100.000 5700.000 8994.339 
 2400.000 5700.000 8583.245 2400.000 5700.000 8942.245 
 2700.000 5700.000 8531.150 2700.000 5700.000 8890.150 
 3000.000 5700.000 8479.056 3000.000 5700.000 8838.056 
 3300.000 5700.000 8426.961 3300.000 5700.000 8785.961 
 3600.000 5700.000 8374.867 3600.000 5700.000 8733.867 
 3900.000 5700.000 8322.773 3900.000 5700.000 8681.773 
 4200.000 5700.000 8270.678 4200.000 5700.000 8629.678 
 4500.000 5700.000 8218.584 4500.000 5700.000 8577.584 
 4800.000 5700.000 8166.489 4800.000 5700.000 8525.489 
 5100.000 5700.000 8114.395 5100.000 5700.000 8473.395 
 5400.000 5700.000 8062.301 5400.000 5700.000 8421.301 
 5700.000 5700.000 8010.206 5700.000 5700.000 8369.206 
 6000.000 5700.000 7958.112 6000.000 5700.000 8317.112 
 6300.000 5700.000 7906.017 6300.000 5700.000 8265.017 
 6600.000 5700.000 7853.923 6600.000 5700.000 8212.923 
 6900.000 5700.000 7801.829 6900.000 5700.000 8160.829 
 7200.000 5700.000 7749.734 7200.000 5700.000 8108.734 
 0.000 6000.000 9000.000 0.000 6000.000 9359.000 
 300.000 6000.000 8947.906 300.000 6000.000 9306.906 
 600.000 6000.000 8895.811 600.000 6000.000 9254.811 
 900.000 6000.000 8843.717 900.000 6000.000 9202.717 
 1200.000 6000.000 8791.622 1200.000 6000.000 9150.622 
 1500.000 6000.000 8739.528 1500.000 6000.000 9098.528 
 1800.000 6000.000 8687.434 1800.000 6000.000 9046.434 
 2100.000 6000.000 8635.339 2100.000 6000.000 8994.339 
 2400.000 6000.000 8583.245 2400.000 6000.000 8942.245 
 2700.000 6000.000 8531.150 2700.000 6000.000 8890.150 
 3000.000 6000.000 8479.056 3000.000 6000.000 8838.056 
 3300.000 6000.000 8426.961 3300.000 6000.000 8785.961 
 3600.000 6000.000 8374.867 3600.000 6000.000 8733.867 
 3900.000 6000.000 8322.773 3900.000 6000.000 8681.773 
 4200.000 6000.000 8270.678 4200.000 6000.000 8629.678 
 4500.000 6000.000 8218.584 4500.000 6000.000 8577.584 
 4800.000 6000.000 8166.489 4800.000 6000.000 8525.489 
 5100.000 6000.000 8114.395 5100.000 6000.000 8473.395 
 5400.000 6000.000 8062.301 5400.000 6000.000 8421.301 
 5700.000 6000.000 8010.206 5700.000 6000.000 8369.206 
 6000.000 6000.000 7958.112 6000.000 6000.000 8317.112 
 6300.000 6000.000 7906.017 6300.000 6000.000 8265.017 
 6600.000 6000.000 7853.923 6600.000 6000.000 8212.923 
 6900.000 6000.000 7801.829 6900.000 6000.000 8160.829 
 7200.000 6000.000 7749.734 7200.000 6000.000 8108.734 
 0.000 6300.000 9000.000 0.000 6300.000 9359.000 