-- This reservoir simulation deck is made available under the Open Database
-- License: http://opendatacommons.org/licenses/odbl/1.0/. Any rights in
-- individual contents of the database are licensed under the Database Contents
-- License: http://opendatacommons.org/licenses/dbcl/1.0/

-- Copyright (C) 2015 Statoil

-- This simulation is based on the data given in 
-- 'Tenth SPE Comparative Solution Project:
-- A comparison of upscaling techniques',
-- by M.A.Chritie and M.J.Blunt,
-- Journal of Petroleum Technology, 2001

-- A dataset from one of the participants was supplied to the 
-- participants of SPE 10. Some of the information in this
-- dataset has been used here as well. 

-- The origin of information or data used in this simulation is 
-- specified in comments. This does not include data whose origin
-- should be obvious to the reader.



-- NOTE: Changes should be made to the data entered in keywords PVTW and ROCK
-- 	 See comments under these keywords
 


-- This file has been created on Syntgrid
-- Grid of SPE 10

SPECGRID
100 1 20 1 F
  /


COORD
 0.000 0.000 0.000 0.000 0.000 50.000 
 25.000 0.000 0.000 25.000 0.000 50.000 
 50.000 0.000 0.000 50.000 0.000 50.000 
 75.000 0.000 0.000 75.000 0.000 50.000 
 100.000 0.000 0.000 100.000 0.000 50.000 
 125.000 0.000 0.000 125.000 0.000 50.000 
 150.000 0.000 0.000 150.000 0.000 50.000 
 175.000 0.000 0.000 175.000 0.000 50.000 
 200.000 0.000 0.000 200.000 0.000 50.000 
 225.000 0.000 0.000 225.000 0.000 50.000 
 250.000 0.000 0.000 250.000 0.000 50.000 
 275.000 0.000 0.000 275.000 0.000 50.000 
 300.000 0.000 0.000 300.000 0.000 50.000 
 325.000 0.000 0.000 325.000 0.000 50.000 
 350.000 0.000 0.000 350.000 0.000 50.000 
 375.000 0.000 0.000 375.000 0.000 50.000 
 400.000 0.000 0.000 400.000 0.000 50.000 
 425.000 0.000 0.000 425.000 0.000 50.000 
 450.000 0.000 0.000 450.000 0.000 50.000 
 475.000 0.000 0.000 475.000 0.000 50.000 
 500.000 0.000 0.000 500.000 0.000 50.000 
 525.000 0.000 0.000 525.000 0.000 50.000 
 550.000 0.000 0.000 550.000 0.000 50.000 
 575.000 0.000 0.000 575.000 0.000 50.000 
 600.000 0.000 0.000 600.000 0.000 50.000 
 625.000 0.000 0.000 625.000 0.000 50.000 
 650.000 0.000 0.000 650.000 0.000 50.000 
 675.000 0.000 0.000 675.000 0.000 50.000 
 700.000 0.000 0.000 700.000 0.000 50.000 
 725.000 0.000 0.000 725.000 0.000 50.000 
 750.000 0.000 0.000 750.000 0.000 50.000 
 775.000 0.000 0.000 775.000 0.000 50.000 
 800.000 0.000 0.000 800.000 0.000 50.000 
 825.000 0.000 0.000 825.000 0.000 50.000 
 850.000 0.000 0.000 850.000 0.000 50.000 
 875.000 0.000 0.000 875.000 0.000 50.000 
 900.000 0.000 0.000 900.000 0.000 50.000 
 925.000 0.000 0.000 925.000 0.000 50.000 
 950.000 0.000 0.000 950.000 0.000 50.000 
 975.000 0.000 0.000 975.000 0.000 50.000 
 1000.000 0.000 0.000 1000.000 0.000 50.000 
 1025.000 0.000 0.000 1025.000 0.000 50.000 
 1050.000 0.000 0.000 1050.000 0.000 50.000 
 1075.000 0.000 0.000 1075.000 0.000 50.000 
 1100.000 0.000 0.000 1100.000 0.000 50.000 
 1125.000 0.000 0.000 1125.000 0.000 50.000 
 1150.000 0.000 0.000 1150.000 0.000 50.000 
 1175.000 0.000 0.000 1175.000 0.000 50.000 
 1200.000 0.000 0.000 1200.000 0.000 50.000 
 1225.000 0.000 0.000 1225.000 0.000 50.000 
 1250.000 0.000 0.000 1250.000 0.000 50.000 
 1275.000 0.000 0.000 1275.000 0.000 50.000 
 1300.000 0.000 0.000 1300.000 0.000 50.000 
 1325.000 0.000 0.000 1325.000 0.000 50.000 
 1350.000 0.000 0.000 1350.000 0.000 50.000 
 1375.000 0.000 0.000 1375.000 0.000 50.000 
 1400.000 0.000 0.000 1400.000 0.000 50.000 
 1425.000 0.000 0.000 1425.000 0.000 50.000 
 1450.000 0.000 0.000 1450.000 0.000 50.000 
 1475.000 0.000 0.000 1475.000 0.000 50.000 
 1500.000 0.000 0.000 1500.000 0.000 50.000 
 1525.000 0.000 0.000 1525.000 0.000 50.000 
 1550.000 0.000 0.000 1550.000 0.000 50.000 
 1575.000 0.000 0.000 1575.000 0.000 50.000 
 1600.000 0.000 0.000 1600.000 0.000 50.000 
 1625.000 0.000 0.000 1625.000 0.000 50.000 
 1650.000 0.000 0.000 1650.000 0.000 50.000 
 1675.000 0.000 0.000 1675.000 0.000 50.000 
 1700.000 0.000 0.000 1700.000 0.000 50.000 
 1725.000 0.000 0.000 1725.000 0.000 50.000 
 1750.000 0.000 0.000 1750.000 0.000 50.000 
 1775.000 0.000 0.000 1775.000 0.000 50.000 
 1800.000 0.000 0.000 1800.000 0.000 50.000 
 1825.000 0.000 0.000 1825.000 0.000 50.000 
 1850.000 0.000 0.000 1850.000 0.000 50.000 
 1875.000 0.000 0.000 1875.000 0.000 50.000 
 1900.000 0.000 0.000 1900.000 0.000 50.000 
 1925.000 0.000 0.000 1925.000 0.000 50.000 
 1950.000 0.000 0.000 1950.000 0.000 50.000 
 1975.000 0.000 0.000 1975.000 0.000 50.000 
 2000.000 0.000 0.000 2000.000 0.000 50.000 
 2025.000 0.000 0.000 2025.000 0.000 50.000 
 2050.000 0.000 0.000 2050.000 0.000 50.000 
 2075.000 0.000 0.000 2075.000 0.000 50.000 
 2100.000 0.000 0.000 2100.000 0.000 50.000 
 2125.000 0.000 0.000 2125.000 0.000 50.000 
 2150.000 0.000 0.000 2150.000 0.000 50.000 
 2175.000 0.000 0.000 2175.000 0.000 50.000 
 2200.000 0.000 0.000 2200.000 0.000 50.000 
 2225.000 0.000 0.000 2225.000 0.000 50.000 
 2250.000 0.000 0.000 2250.000 0.000 50.000 
 2275.000 0.000 0.000 2275.000 0.000 50.000 
 2300.000 0.000 0.000 2300.000 0.000 50.000 
 2325.000 0.000 0.000 2325.000 0.000 50.000 
 2350.000 0.000 0.000 2350.000 0.000 50.000 
 2375.000 0.000 0.000 2375.000 0.000 50.000 
 2400.000 0.000 0.000 2400.000 0.000 50.000 
 2425.000 0.000 0.000 2425.000 0.000 50.000 
 2450.000 0.000 0.000 2450.000 0.000 50.000 
 2475.000 0.000 0.000 2475.000 0.000 50.000 
 2500.000 0.000 0.000 2500.000 0.000 50.000 
 0.000 25.000 0.000 0.000 25.000 50.000 
 25.000 25.000 0.000 25.000 25.000 50.000 
 50.000 25.000 0.000 50.000 25.000 50.000 
 75.000 25.000 0.000 75.000 25.000 50.000 
 100.000 25.000 0.000 100.000 25.000 50.000 
 125.000 25.000 0.000 125.000 25.000 50.000 
 150.000 25.000 0.000 150.000 25.000 50.000 
 175.000 25.000 0.000 175.000 25.000 50.000 
 200.000 25.000 0.000 200.000 25.000 50.000 
 225.000 25.000 0.000 225.000 25.000 50.000 
 250.000 25.000 0.000 250.000 25.000 50.000 
 275.000 25.000 0.000 275.000 25.000 50.000 
 300.000 25.000 0.000 300.000 25.000 50.000 
 325.000 25.000 0.000 325.000 25.000 50.000 
 350.000 25.000 0.000 350.000 25.000 50.000 
 375.000 25.000 0.000 375.000 25.000 50.000 
 400.000 25.000 0.000 400.000 25.000 50.000 
 425.000 25.000 0.000 425.000 25.000 50.000 
 450.000 25.000 0.000 450.000 25.000 50.000 
 475.000 25.000 0.000 475.000 25.000 50.000 
 500.000 25.000 0.000 500.000 25.000 50.000 
 525.000 25.000 0.000 525.000 25.000 50.000 
 550.000 25.000 0.000 550.000 25.000 50.000 
 575.000 25.000 0.000 575.000 25.000 50.000 
 600.000 25.000 0.000 600.000 25.000 50.000 
 625.000 25.000 0.000 625.000 25.000 50.000 
 650.000 25.000 0.000 650.000 25.000 50.000 
 675.000 25.000 0.000 675.000 25.000 50.000 
 700.000 25.000 0.000 700.000 25.000 50.000 
 725.000 25.000 0.000 725.000 25.000 50.000 
 750.000 25.000 0.000 750.000 25.000 50.000 
 775.000 25.000 0.000 775.000 25.000 50.000 
 800.000 25.000 0.000 800.000 25.000 50.000 
 825.000 25.000 0.000 825.000 25.000 50.000 
 850.000 25.000 0.000 850.000 25.000 50.000 
 875.000 25.000 0.000 875.000 25.000 50.000 
 900.000 25.000 0.000 900.000 25.000 50.000 
 925.000 25.000 0.000 925.000 25.000 50.000 
 950.000 25.000 0.000 950.000 25.000 50.000 
 975.000 25.000 0.000 975.000 25.000 50.000 
 1000.000 25.000 0.000 1000.000 25.000 50.000 
 1025.000 25.000 0.000 1025.000 25.000 50.000 
 1050.000 25.000 0.000 1050.000 25.000 50.000 
 1075.000 25.000 0.000 1075.000 25.000 50.000 
 1100.000 25.000 0.000 1100.000 25.000 50.000 
 1125.000 25.000 0.000 1125.000 25.000 50.000 
 1150.000 25.000 0.000 1150.000 25.000 50.000 
 1175.000 25.000 0.000 1175.000 25.000 50.000 
 1200.000 25.000 0.000 1200.000 25.000 50.000 
 1225.000 25.000 0.000 1225.000 25.000 50.000 
 1250.000 25.000 0.000 1250.000 25.000 50.000 
 1275.000 25.000 0.000 1275.000 25.000 50.000 
 1300.000 25.000 0.000 1300.000 25.000 50.000 
 1325.000 25.000 0.000 1325.000 25.000 50.000 
 1350.000 25.000 0.000 1350.000 25.000 50.000 
 1375.000 25.000 0.000 1375.000 25.000 50.000 
 1400.000 25.000 0.000 1400.000 25.000 50.000 
 1425.000 25.000 0.000 1425.000 25.000 50.000 
 1450.000 25.000 0.000 1450.000 25.000 50.000 
 1475.000 25.000 0.000 1475.000 25.000 50.000 
 1500.000 25.000 0.000 1500.000 25.000 50.000 
 1525.000 25.000 0.000 1525.000 25.000 50.000 
 1550.000 25.000 0.000 1550.000 25.000 50.000 
 1575.000 25.000 0.000 1575.000 25.000 50.000 
 1600.000 25.000 0.000 1600.000 25.000 50.000 
 1625.000 25.000 0.000 1625.000 25.000 50.000 
 1650.000 25.000 0.000 1650.000 25.000 50.000 
 1675.000 25.000 0.000 1675.000 25.000 50.000 
 1700.000 25.000 0.000 1700.000 25.000 50.000 
 1725.000 25.000 0.000 1725.000 25.000 50.000 
 1750.000 25.000 0.000 1750.000 25.000 50.000 
 1775.000 25.000 0.000 1775.000 25.000 50.000 
 1800.000 25.000 0.000 1800.000 25.000 50.000 
 1825.000 25.000 0.000 1825.000 25.000 50.000 
 1850.000 25.000 0.000 1850.000 25.000 50.000 
 1875.000 25.000 0.000 1875.000 25.000 50.000 
 1900.000 25.000 0.000 1900.000 25.000 50.000 
 1925.000 25.000 0.000 1925.000 25.000 50.000 
 1950.000 25.000 0.000 1950.000 25.000 50.000 
 1975.000 25.000 0.000 1975.000 25.000 50.000 
 2000.000 25.000 0.000 2000.000 25.000 50.000 
 2025.000 25.000 0.000 2025.000 25.000 50.000 
 2050.000 25.000 0.000 2050.000 25.000 50.000 
 2075.000 25.000 0.000 2075.000 25.000 50.000 
 2100.000 25.000 0.000 2100.000 25.000 50.000 
 2125.000 25.000 0.000 2125.000 25.000 50.000 
 2150.000 25.000 0.000 2150.000 25.000 50.000 
 2175.000 25.000 0.000 2175.000 25.000 50.000 
 2200.000 25.000 0.000 2200.000 25.000 50.000 
 2225.000 25.000 0.000 2225.000 25.000 50.000 
 2250.000 25.000 0.000 2250.000 25.000 50.000 
 2275.000 25.000 0.000 2275.000 25.000 50.000 
 2300.000 25.000 0.000 2300.000 25.000 50.000 
 2325.000 25.000 0.000 2325.000 25.000 50.000 
 2350.000 25.000 0.000 2350.000 25.000 50.000 
 2375.000 25.000 0.000 2375.000 25.000 50.000 
 2400.000 25.000 0.000 2400.000 25.000 50.000 
 2425.000 25.000 0.000 2425.000 25.000 50.000 
 2450.000 25.000 0.000 2450.000 25.000 50.000 
 2475.000 25.000 0.000 2475.000 25.000 50.000 
 2500.000 25.000 0.000 2500.000 25.000 50.000 

  /


ZCORN
0.000 0.000 0.000 0.000 0.000 0.000 
0.000 0.000 0.000 0.000 0.000 0.000 
0.000 0.000 0.000 0.000 0.000 0.000 
0.000 0.000 0.000 0.000 0.000 0.000 
0.000 0.000 0.000 0.000 0.000 0.000 
0.000 0.000 0.000 0.000 0.000 0.000 
0.000 0.000 0.000 0.000 0.000 0.000 
0.000 0.000 0.000 0.000 0.000 0.000 
0.000 0.000 0.000 0.000 0.000 0.000 
0.000 0.000 0.000 0.000 0.000 0.000 
0.000 0.000 0.000 0.000 0.000 0.000 
0.000 0.000 0.000 0.000 0.000 0.000 
0.000 0.000 0.000 0.000 0.000 0.000 
0.000 0.000 0.000 0.000 0.000 0.000 
0.000 0.000 0.000 0.000 0.000 0.000 
0.000 0.000 0.000 0.000 0.000 0.000 
0.000 0.000 0.000 0.000 0.000 0.000 
0.000 0.000 0.000 0.000 0.000 0.000 
0.000 0.000 0.000 0.000 0.000 0.000 
0.000 0.000 0.000 0.000 0.000 0.000 
0.000 0.000 0.000 0.000 0.000 0.000 
0.000 0.000 0.000 0.000 0.000 0.000 
0.000 0.000 0.000 0.000 0.000 0.000 
0.000 0.000 0.000 0.000 0.000 0.000 
0.000 0.000 0.000 0.000 0.000 0.000 
0.000 0.000 0.000 0.000 0.000 0.000 
0.000 0.000 0.000 0.000 0.000 0.000 
0.000 0.000 0.000 0.000 0.000 0.000 
0.000 0.000 0.000 0.000 0.000 0.000 
0.000 0.000 0.000 0.000 0.000 0.000 
0.000 0.000 0.000 0.000 0.000 0.000 
0.000 0.000 0.000 0.000 0.000 0.000 
0.000 0.000 0.000 0.000 0.000 0.000 
0.000 0.000 0.000 0.000 0.000 0.000 
0.000 0.000 0.000 0.000 0.000 0.000 
0.000 0.000 0.000 0.000 0.000 0.000 
0.000 0.000 0.000 0.000 0.000 0.000 
0.000 0.000 0.000 0.000 0.000 0.000 
0.000 0.000 0.000 0.000 0.000 0.000 
0.000 0.000 0.000 0.000 0.000 0.000 
0.000 0.000 0.000 0.000 0.000 0.000 
0.000 0.000 0.000 0.000 0.000 0.000 
0.000 0.000 0.000 0.000 0.000 0.000 
0.000 0.000 0.000 0.000 0.000 0.000 
0.000 0.000 0.000 0.000 0.000 0.000 
0.000 0.000 0.000 0.000 0.000 0.000 
0.000 0.000 0.000 0.000 0.000 0.000 
0.000 0.000 0.000 0.000 0.000 0.000 
0.000 0.000 0.000 0.000 0.000 0.000 
0.000 0.000 0.000 0.000 0.000 0.000 
0.000 0.000 0.000 0.000 0.000 0.000 
0.000 0.000 0.000 0.000 0.000 0.000 
0.000 0.000 0.000 0.000 0.000 0.000 
0.000 0.000 0.000 0.000 0.000 0.000 
0.000 0.000 0.000 0.000 0.000 0.000 
0.000 0.000 0.000 0.000 0.000 0.000 
0.000 0.000 0.000 0.000 0.000 0.000 
0.000 0.000 0.000 0.000 0.000 0.000 
0.000 0.000 0.000 0.000 0.000 0.000 
0.000 0.000 0.000 0.000 0.000 0.000 
0.000 0.000 0.000 0.000 0.000 0.000 
0.000 0.000 0.000 0.000 0.000 0.000 
0.000 0.000 0.000 0.000 0.000 0.000 
0.000 0.000 0.000 0.000 0.000 0.000 
0.000 0.000 0.000 0.000 0.000 0.000 
0.000 0.000 0.000 0.000 0.000 0.000 
0.000 0.000 0.000 0.000 2.500 2.500 
2.500 2.500 2.500 2.500 2.500 2.500 
2.500 2.500 2.500 2.500 2.500 2.500 
2.500 2.500 2.500 2.500 2.500 2.500 
2.500 2.500 2.500 2.500 2.500 2.500 
2.500 2.500 2.500 2.500 2.500 2.500 
2.500 2.500 2.500 2.500 2.500 2.500 
2.500 2.500 2.500 2.500 2.500 2.500 
2.500 2.500 2.500 2.500 2.500 2.500 
2.500 2.500 2.500 2.500 2.500 2.500 
2.500 2.500 2.500 2.500 2.500 2.500 
2.500 2.500 2.500 2.500 2.500 2.500 
2.500 2.500 2.500 2.500 2.500 2.500 
2.500 2.500 2.500 2.500 2.500 2.500 
2.500 2.500 2.500 2.500 2.500 2.500 
2.500 2.500 2.500 2.500 2.500 2.500 
2.500 2.500 2.500 2.500 2.500 2.500 
2.500 2.500 2.500 2.500 2.500 2.500 
2.500 2.500 2.500 2.500 2.500 2.500 
2.500 2.500 2.500 2.500 2.500 2.500 
2.500 2.500 2.500 2.500 2.500 2.500 
2.500 2.500 2.500 2.500 2.500 2.500 
2.500 2.500 2.500 2.500 2.500 2.500 
2.500 2.500 2.500 2.500 2.500 2.500 
2.500 2.500 2.500 2.500 2.500 2.500 
2.500 2.500 2.500 2.500 2.500 2.500 
2.500 2.500 2.500 2.500 2.500 2.500 
2.500 2.500 2.500 2.500 2.500 2.500 
2.500 2.500 2.500 2.500 2.500 2.500 
2.500 2.500 2.500 2.500 2.500 2.500 
2.500 2.500 2.500 2.500 2.500 2.500 
2.500 2.500 2.500 2.500 2.500 2.500 
2.500 2.500 2.500 2.500 2.500 2.500 
2.500 2.500 2.500 2.500 2.500 2.500 
2.500 2.500 2.500 2.500 2.500 2.500 
2.500 2.500 2.500 2.500 2.500 2.500 
2.500 2.500 2.500 2.500 2.500 2.500 
2.500 2.500 2.500 2.500 2.500 2.500 
2.500 2.500 2.500 2.500 2.500 2.500 
2.500 2.500 2.500 2.500 2.500 2.500 
2.500 2.500 2.500 2.500 2.500 2.500 
2.500 2.500 2.500 2.500 2.500 2.500 
2.500 2.500 2.500 2.500 2.500 2.500 
2.500 2.500 2.500 2.500 2.500 2.500 
2.500 2.500 2.500 2.500 2.500 2.500 
2.500 2.500 2.500 2.500 2.500 2.500 
2.500 2.500 2.500 2.500 2.500 2.500 
2.500 2.500 2.500 2.500 2.500 2.500 
2.500 2.500 2.500 2.500 2.500 2.500 
2.500 2.500 2.500 2.500 2.500 2.500 
2.500 2.500 2.500 2.500 2.500 2.500 
2.500 2.500 2.500 2.500 2.500 2.500 
2.500 2.500 2.500 2.500 2.500 2.500 
2.500 2.500 2.500 2.500 2.500 2.500 
2.500 2.500 2.500 2.500 2.500 2.500 
2.500 2.500 2.500 2.500 2.500 2.500 
2.500 2.500 2.500 2.500 2.500 2.500 
2.500 2.500 2.500 2.500 2.500 2.500 
2.500 2.500 2.500 2.500 2.500 2.500 
2.500 2.500 2.500 2.500 2.500 2.500 
2.500 2.500 2.500 2.500 2.500 2.500 
2.500 2.500 2.500 2.500 2.500 2.500 
2.500 2.500 2.500 2.500 2.500 2.500 
2.500 2.500 2.500 2.500 2.500 2.500 
2.500 2.500 2.500 2.500 2.500 2.500 
2.500 2.500 2.500 2.500 2.500 2.500 
2.500 2.500 2.500 2.500 2.500 2.500 
2.500 2.500 2.500 2.500 2.500 2.500 
2.500 2.500 2.500 2.500 2.500 2.500 
2.500 2.500 2.500 2.500 2.500 2.500 
2.500 2.500 2.500 2.500 2.500 2.500 
2.500 2.500 2.500 2.500 2.500 2.500 
2.500 2.500 2.500 2.500 2.500 2.500 
2.500 2.500 2.500 2.500 2.500 2.500 
2.500 2.500 2.500 2.500 2.500 2.500 
2.500 2.500 2.500 2.500 2.500 2.500 
2.500 2.500 2.500 2.500 2.500 2.500 
2.500 2.500 2.500 2.500 2.500 2.500 
2.500 2.500 2.500 2.500 2.500 2.500 
2.500 2.500 2.500 2.500 2.500 2.500 
2.500 2.500 2.500 2.500 2.500 2.500 
2.500 2.500 2.500 2.500 2.500 2.500 
2.500 2.500 2.500 2.500 2.500 2.500 
2.500 2.500 2.500 2.500 2.500 2.500 
2.500 2.500 2.500 2.500 2.500 2.500 
2.500 2.500 2.500 2.500 2.500 2.500 
2.500 2.500 2.500 2.500 2.500 2.500 
2.500 2.500 2.500 2.500 2.500 2.500 
2.500 2.500 2.500 2.500 2.500 2.500 
2.500 2.500 2.500 2.500 2.500 2.500 
2.500 2.500 2.500 2.500 2.500 2.500 
2.500 2.500 2.500 2.500 2.500 2.500 
2.500 2.500 2.500 2.500 2.500 2.500 
2.500 2.500 2.500 2.500 2.500 2.500 
2.500 2.500 2.500 2.500 2.500 2.500 
2.500 2.500 2.500 2.500 2.500 2.500 
2.500 2.500 2.500 2.500 2.500 2.500 
2.500 2.500 2.500 2.500 2.500 2.500 
2.500 2.500 2.500 2.500 2.500 2.500 
2.500 2.500 2.500 2.500 2.500 2.500 
2.500 2.500 2.500 2.500 2.500 2.500 
2.500 2.500 2.500 2.500 2.500 2.500 
2.500 2.500 2.500 2.500 2.500 2.500 
2.500 2.500 2.500 2.500 2.500 2.500 
2.500 2.500 2.500 2.500 2.500 2.500 
2.500 2.500 2.500 2.500 2.500 2.500 
2.500 2.500 2.500 2.500 2.500 2.500 
2.500 2.500 2.500 2.500 2.500 2.500 
2.500 2.500 2.500 2.500 2.500 2.500 
2.500 2.500 2.500 2.500 2.500 2.500 
2.500 2.500 2.500 2.500 2.500 2.500 
2.500 2.500 2.500 2.500 2.500 2.500 
2.500 2.500 2.500 2.500 2.500 2.500 
2.500 2.500 2.500 2.500 2.500 2.500 
2.500 2.500 2.500 2.500 2.500 2.500 
2.500 2.500 2.500 2.500 2.500 2.500 
2.500 2.500 2.500 2.500 2.500 2.500 
2.500 2.500 2.500 2.500 2.500 2.500 
2.500 2.500 2.500 2.500 2.500 2.500 
2.500 2.500 2.500 2.500 2.500 2.500 
2.500 2.500 2.500 2.500 2.500 2.500 
2.500 2.500 2.500 2.500 2.500 2.500 
2.500 2.500 2.500 2.500 2.500 2.500 
2.500 2.500 2.500 2.500 2.500 2.500 
2.500 2.500 2.500 2.500 2.500 2.500 
2.500 2.500 2.500 2.500 2.500 2.500 
2.500 2.500 2.500 2.500 2.500 2.500 
2.500 2.500 2.500 2.500 2.500 2.500 
2.500 2.500 2.500 2.500 2.500 2.500 
2.500 2.500 2.500 2.500 2.500 2.500 
2.500 2.500 2.500 2.500 2.500 2.500 
2.500 2.500 2.500 2.500 2.500 2.500 
2.500 2.500 2.500 2.500 2.500 2.500 
2.500 2.500 2.500 2.500 2.500 2.500 
5.000 5.000 5.000 5.000 5.000 5.000 
5.000 5.000 5.000 5.000 5.000 5.000 
5.000 5.000 5.000 5.000 5.000 5.000 
5.000 5.000 5.000 5.000 5.000 5.000 
5.000 5.000 5.000 5.000 5.000 5.000 
5.000 5.000 5.000 5.000 5.000 5.000 
5.000 5.000 5.000 5.000 5.000 5.000 
5.000 5.000 5.000 5.000 5.000 5.000 
5.000 5.000 5.000 5.000 5.000 5.000 
5.000 5.000 5.000 5.000 5.000 5.000 
5.000 5.000 5.000 5.000 5.000 5.000 
5.000 5.000 5.000 5.000 5.000 5.000 
5.000 5.000 5.000 5.000 5.000 5.000 
5.000 5.000 5.000 5.000 5.000 5.000 
5.000 5.000 5.000 5.000 5.000 5.000 
5.000 5.000 5.000 5.000 5.000 5.000 
5.000 5.000 5.000 5.000 5.000 5.000 
5.000 5.000 5.000 5.000 5.000 5.000 
5.000 5.000 5.000 5.000 5.000 5.000 
5.000 5.000 5.000 5.000 5.000 5.000 
5.000 5.000 5.000 5.000 5.000 5.000 
5.000 5.000 5.000 5.000 5.000 5.000 
5.000 5.000 5.000 5.000 5.000 5.000 
5.000 5.000 5.000 5.000 5.000 5.000 
5.000 5.000 5.000 5.000 5.000 5.000 
5.000 5.000 5.000 5.000 5.000 5.000 
5.000 5.000 5.000 5.000 5.000 5.000 
5.000 5.000 5.000 5.000 5.000 5.000 
5.000 5.000 5.000 5.000 5.000 5.000 
5.000 5.000 5.000 5.000 5.000 5.000 
5.000 5.000 5.000 5.000 5.000 5.000 
5.000 5.000 5.000 5.000 5.000 5.000 
5.000 5.000 5.000 5.000 5.000 5.000 
5.000 5.000 5.000 5.000 5.000 5.000 
5.000 5.000 5.000 5.000 5.000 5.000 
5.000 5.000 5.000 5.000 5.000 5.000 
5.000 5.000 5.000 5.000 5.000 5.000 
5.000 5.000 5.000 5.000 5.000 5.000 
5.000 5.000 5.000 5.000 5.000 5.000 
5.000 5.000 5.000 5.000 5.000 5.000 
5.000 5.000 5.000 5.000 5.000 5.000 
5.000 5.000 5.000 5.000 5.000 5.000 
5.000 5.000 5.000 5.000 5.000 5.000 
5.000 5.000 5.000 5.000 5.000 5.000 
5.000 5.000 5.000 5.000 5.000 5.000 
5.000 5.000 5.000 5.000 5.000 5.000 
5.000 5.000 5.000 5.000 5.000 5.000 
5.000 5.000 5.000 5.000 5.000 5.000 
5.000 5.000 5.000 5.000 5.000 5.000 
5.000 5.000 5.000 5.000 5.000 5.000 
5.000 5.000 5.000 5.000 5.000 5.000 
5.000 5.000 5.000 5.000 5.000 5.000 
5.000 5.000 5.000 5.000 5.000 5.000 
5.000 5.000 5.000 5.000 5.000 5.000 
5.000 5.000 5.000 5.000 5.000 5.000 
5.000 5.000 5.000 5.000 5.000 5.000 
5.000 5.000 5.000 5.000 5.000 5.000 
5.000 5.000 5.000 5.000 5.000 5.000 
5.000 5.000 5.000 5.000 5.000 5.000 
5.000 5.000 5.000 5.000 5.000 5.000 
5.000 5.000 5.000 5.000 5.000 5.000 
5.000 5.000 5.000 5.000 5.000 5.000 
5.000 5.000 5.000 5.000 5.000 5.000 
5.000 5.000 5.000 5.000 5.000 5.000 
5.000 5.000 5.000 5.000 5.000 5.000 
5.000 5.000 5.000 5.000 5.000 5.000 
5.000 5.000 5.000 5.000 5.000 5.000 
5.000 5.000 5.000 5.000 5.000 5.000 
5.000 5.000 5.000 5.000 5.000 5.000 
5.000 5.000 5.000 5.000 5.000 5.000 
5.000 5.000 5.000 5.000 5.000 5.000 
5.000 5.000 5.000 5.000 5.000 5.000 
5.000 5.000 5.000 5.000 5.000 5.000 
5.000 5.000 5.000 5.000 5.000 5.000 
5.000 5.000 5.000 5.000 5.000 5.000 
5.000 5.000 5.000 5.000 5.000 5.000 
5.000 5.000 5.000 5.000 5.000 5.000 
5.000 5.000 5.000 5.000 5.000 5.000 
5.000 5.000 5.000 5.000 5.000 5.000 
5.000 5.000 5.000 5.000 5.000 5.000 
5.000 5.000 5.000 5.000 5.000 5.000 
5.000 5.000 5.000 5.000 5.000 5.000 
5.000 5.000 5.000 5.000 5.000 5.000 
5.000 5.000 5.000 5.000 5.000 5.000 
5.000 5.000 5.000 5.000 5.000 5.000 
5.000 5.000 5.000 5.000 5.000 5.000 
5.000 5.000 5.000 5.000 5.000 5.000 
5.000 5.000 5.000 5.000 5.000 5.000 
5.000 5.000 5.000 5.000 5.000 5.000 
5.000 5.000 5.000 5.000 5.000 5.000 
5.000 5.000 5.000 5.000 5.000 5.000 
5.000 5.000 5.000 5.000 5.000 5.000 
5.000 5.000 5.000 5.000 5.000 5.000 
5.000 5.000 5.000 5.000 5.000 5.000 
5.000 5.000 5.000 5.000 5.000 5.000 
5.000 5.000 5.000 5.000 5.000 5.000 
5.000 5.000 5.000 5.000 5.000 5.000 
5.000 5.000 5.000 5.000 5.000 5.000 
5.000 5.000 5.000 5.000 5.000 5.000 
5.000 5.000 5.000 5.000 5.000 5.000 
5.000 5.000 5.000 5.000 5.000 5.000 
5.000 5.000 5.000 5.000 5.000 5.000 
5.000 5.000 5.000 5.000 5.000 5.000 
5.000 5.000 5.000 5.000 5.000 5.000 
5.000 5.000 5.000 5.000 5.000 5.000 
5.000 5.000 5.000 5.000 5.000 5.000 
5.000 5.000 5.000 5.000 5.000 5.000 
5.000 5.000 5.000 5.000 5.000 5.000 
5.000 5.000 5.000 5.000 5.000 5.000 
5.000 5.000 5.000 5.000 5.000 5.000 
5.000 5.000 5.000 5.000 5.000 5.000 
5.000 5.000 5.000 5.000 5.000 5.000 
5.000 5.000 5.000 5.000 5.000 5.000 
5.000 5.000 5.000 5.000 5.000 5.000 
5.000 5.000 5.000 5.000 5.000 5.000 
5.000 5.000 5.000 5.000 5.000 5.000 
5.000 5.000 5.000 5.000 5.000 5.000 
5.000 5.000 5.000 5.000 5.000 5.000 
5.000 5.000 5.000 5.000 5.000 5.000 
5.000 5.000 5.000 5.000 5.000 5.000 
5.000 5.000 5.000 5.000 5.000 5.000 
5.000 5.000 5.000 5.000 5.000 5.000 
5.000 5.000 5.000 5.000 5.000 5.000 
5.000 5.000 5.000 5.000 5.000 5.000 
5.000 5.000 5.000 5.000 5.000 5.000 
5.000 5.000 5.000 5.000 5.000 5.000 
5.000 5.000 5.000 5.000 5.000 5.000 
5.000 5.000 5.000 5.000 5.000 5.000 
5.000 5.000 5.000 5.000 5.000 5.000 
5.000 5.000 5.000 5.000 5.000 5.000 
5.000 5.000 5.000 5.000 5.000 5.000 
5.000 5.000 5.000 5.000 5.000 5.000 
5.000 5.000 5.000 5.000 5.000 5.000 
5.000 5.000 7.500 7.500 7.500 7.500 
7.500 7.500 7.500 7.500 7.500 7.500 
7.500 7.500 7.500 7.500 7.500 7.500 
7.500 7.500 7.500 7.500 7.500 7.500 
7.500 7.500 7.500 7.500 7.500 7.500 
7.500 7.500 7.500 7.500 7.500 7.500 
7.500 7.500 7.500 7.500 7.500 7.500 
7.500 7.500 7.500 7.500 7.500 7.500 
7.500 7.500 7.500 7.500 7.500 7.500 
7.500 7.500 7.500 7.500 7.500 7.500 
7.500 7.500 7.500 7.500 7.500 7.500 
7.500 7.500 7.500 7.500 7.500 7.500 
7.500 7.500 7.500 7.500 7.500 7.500 
7.500 7.500 7.500 7.500 7.500 7.500 
7.500 7.500 7.500 7.500 7.500 7.500 
7.500 7.500 7.500 7.500 7.500 7.500 
7.500 7.500 7.500 7.500 7.500 7.500 
7.500 7.500 7.500 7.500 7.500 7.500 
7.500 7.500 7.500 7.500 7.500 7.500 
7.500 7.500 7.500 7.500 7.500 7.500 
7.500 7.500 7.500 7.500 7.500 7.500 
7.500 7.500 7.500 7.500 7.500 7.500 
7.500 7.500 7.500 7.500 7.500 7.500 
7.500 7.500 7.500 7.500 7.500 7.500 
7.500 7.500 7.500 7.500 7.500 7.500 
7.500 7.500 7.500 7.500 7.500 7.500 
7.500 7.500 7.500 7.500 7.500 7.500 
7.500 7.500 7.500 7.500 7.500 7.500 
7.500 7.500 7.500 7.500 7.500 7.500 
7.500 7.500 7.500 7.500 7.500 7.500 
7.500 7.500 7.500 7.500 7.500 7.500 
7.500 7.500 7.500 7.500 7.500 7.500 
7.500 7.500 7.500 7.500 7.500 7.500 
7.500 7.500 7.500 7.500 7.500 7.500 
7.500 7.500 7.500 7.500 7.500 7.500 
7.500 7.500 7.500 7.500 7.500 7.500 
7.500 7.500 7.500 7.500 7.500 7.500 
7.500 7.500 7.500 7.500 7.500 7.500 
7.500 7.500 7.500 7.500 7.500 7.500 
7.500 7.500 7.500 7.500 7.500 7.500 
7.500 7.500 7.500 7.500 7.500 7.500 
7.500 7.500 7.500 7.500 7.500 7.500 
7.500 7.500 7.500 7.500 7.500 7.500 
7.500 7.500 7.500 7.500 7.500 7.500 
7.500 7.500 7.500 7.500 7.500 7.500 
7.500 7.500 7.500 7.500 7.500 7.500 
7.500 7.500 7.500 7.500 7.500 7.500 
7.500 7.500 7.500 7.500 7.500 7.500 
7.500 7.500 7.500 7.500 7.500 7.500 
7.500 7.500 7.500 7.500 7.500 7.500 
7.500 7.500 7.500 7.500 7.500 7.500 
7.500 7.500 7.500 7.500 7.500 7.500 
7.500 7.500 7.500 7.500 7.500 7.500 
7.500 7.500 7.500 7.500 7.500 7.500 
7.500 7.500 7.500 7.500 7.500 7.500 
7.500 7.500 7.500 7.500 7.500 7.500 
7.500 7.500 7.500 7.500 7.500 7.500 
7.500 7.500 7.500 7.500 7.500 7.500 
7.500 7.500 7.500 7.500 7.500 7.500 
7.500 7.500 7.500 7.500 7.500 7.500 
7.500 7.500 7.500 7.500 7.500 7.500 
7.500 7.500 7.500 7.500 7.500 7.500 
7.500 7.500 7.500 7.500 7.500 7.500 
7.500 7.500 7.500 7.500 7.500 7.500 
7.500 7.500 7.500 7.500 7.500 7.500 
7.500 7.500 7.500 7.500 7.500 7.500 
7.500 7.500 7.500 7.500 7.500 7.500 
7.500 7.500 7.500 7.500 7.500 7.500 
7.500 7.500 7.500 7.500 7.500 7.500 
7.500 7.500 7.500 7.500 7.500 7.500 
7.500 7.500 7.500 7.500 7.500 7.500 
7.500 7.500 7.500 7.500 7.500 7.500 
7.500 7.500 7.500 7.500 7.500 7.500 
7.500 7.500 7.500 7.500 7.500 7.500 
7.500 7.500 7.500 7.500 7.500 7.500 
7.500 7.500 7.500 7.500 7.500 7.500 
7.500 7.500 7.500 7.500 7.500 7.500 
7.500 7.500 7.500 7.500 7.500 7.500 
7.500 7.500 7.500 7.500 7.500 7.500 
7.500 7.500 7.500 7.500 7.500 7.500 
7.500 7.500 7.500 7.500 7.500 7.500 
7.500 7.500 7.500 7.500 7.500 7.500 
7.500 7.500 7.500 7.500 7.500 7.500 
7.500 7.500 7.500 7.500 7.500 7.500 
7.500 7.500 7.500 7.500 7.500 7.500 
7.500 7.500 7.500 7.500 7.500 7.500 
7.500 7.500 7.500 7.500 7.500 7.500 
7.500 7.500 7.500 7.500 7.500 7.500 
7.500 7.500 7.500 7.500 7.500 7.500 
7.500 7.500 7.500 7.500 7.500 7.500 
7.500 7.500 7.500 7.500 7.500 7.500 
7.500 7.500 7.500 7.500 7.500 7.500 
7.500 7.500 7.500 7.500 7.500 7.500 
7.500 7.500 7.500 7.500 7.500 7.500 
7.500 7.500 7.500 7.500 7.500 7.500 
7.500 7.500 7.500 7.500 7.500 7.500 
7.500 7.500 7.500 7.500 7.500 7.500 
7.500 7.500 7.500 7.500 7.500 7.500 
7.500 7.500 7.500 7.500 7.500 7.500 
7.500 7.500 7.500 7.500 7.500 7.500 
7.500 7.500 7.500 7.500 7.500 7.500 
7.500 7.500 7.500 7.500 7.500 7.500 
7.500 7.500 7.500 7.500 7.500 7.500 
7.500 7.500 7.500 7.500 7.500 7.500 
7.500 7.500 7.500 7.500 7.500 7.500 
7.500 7.500 7.500 7.500 7.500 7.500 
7.500 7.500 7.500 7.500 7.500 7.500 
7.500 7.500 7.500 7.500 7.500 7.500 
7.500 7.500 7.500 7.500 7.500 7.500 
7.500 7.500 7.500 7.500 7.500 7.500 
7.500 7.500 7.500 7.500 7.500 7.500 
7.500 7.500 7.500 7.500 7.500 7.500 
7.500 7.500 7.500 7.500 7.500 7.500 
7.500 7.500 7.500 7.500 7.500 7.500 
7.500 7.500 7.500 7.500 7.500 7.500 
7.500 7.500 7.500 7.500 7.500 7.500 
7.500 7.500 7.500 7.500 7.500 7.500 
7.500 7.500 7.500 7.500 7.500 7.500 
7.500 7.500 7.500 7.500 7.500 7.500 
7.500 7.500 7.500 7.500 7.500 7.500 
7.500 7.500 7.500 7.500 7.500 7.500 
7.500 7.500 7.500 7.500 7.500 7.500 
7.500 7.500 7.500 7.500 7.500 7.500 
7.500 7.500 7.500 7.500 7.500 7.500 
7.500 7.500 7.500 7.500 7.500 7.500 
7.500 7.500 7.500 7.500 7.500 7.500 
7.500 7.500 7.500 7.500 7.500 7.500 
7.500 7.500 7.500 7.500 7.500 7.500 
7.500 7.500 7.500 7.500 7.500 7.500 
7.500 7.500 7.500 7.500 7.500 7.500 
7.500 7.500 7.500 7.500 7.500 7.500 
7.500 7.500 7.500 7.500 7.500 7.500 
7.500 7.500 7.500 7.500 7.500 7.500 
7.500 7.500 7.500 7.500 10.000 10.000 
10.000 10.000 10.000 10.000 10.000 10.000 
10.000 10.000 10.000 10.000 10.000 10.000 
10.000 10.000 10.000 10.000 10.000 10.000 
10.000 10.000 10.000 10.000 10.000 10.000 
10.000 10.000 10.000 10.000 10.000 10.000 
10.000 10.000 10.000 10.000 10.000 10.000 
10.000 10.000 10.000 10.000 10.000 10.000 
10.000 10.000 10.000 10.000 10.000 10.000 
10.000 10.000 10.000 10.000 10.000 10.000 
10.000 10.000 10.000 10.000 10.000 10.000 
10.000 10.000 10.000 10.000 10.000 10.000 
10.000 10.000 10.000 10.000 10.000 10.000 
10.000 10.000 10.000 10.000 10.000 10.000 
10.000 10.000 10.000 10.000 10.000 10.000 
10.000 10.000 10.000 10.000 10.000 10.000 
10.000 10.000 10.000 10.000 10.000 10.000 
10.000 10.000 10.000 10.000 10.000 10.000 
10.000 10.000 10.000 10.000 10.000 10.000 
10.000 10.000 10.000 10.000 10.000 10.000 
10.000 10.000 10.000 10.000 10.000 10.000 
10.000 10.000 10.000 10.000 10.000 10.000 
10.000 10.000 10.000 10.000 10.000 10.000 
10.000 10.000 10.000 10.000 10.000 10.000 
10.000 10.000 10.000 10.000 10.000 10.000 
10.000 10.000 10.000 10.000 10.000 10.000 
10.000 10.000 10.000 10.000 10.000 10.000 
10.000 10.000 10.000 10.000 10.000 10.000 
10.000 10.000 10.000 10.000 10.000 10.000 
10.000 10.000 10.000 10.000 10.000 10.000 
10.000 10.000 10.000 10.000 10.000 10.000 
10.000 10.000 10.000 10.000 10.000 10.000 
10.000 10.000 10.000 10.000 10.000 10.000 
10.000 10.000 10.000 10.000 10.000 10.000 
10.000 10.000 10.000 10.000 10.000 10.000 
10.000 10.000 10.000 10.000 10.000 10.000 
10.000 10.000 10.000 10.000 10.000 10.000 
10.000 10.000 10.000 10.000 10.000 10.000 
10.000 10.000 10.000 10.000 10.000 10.000 
10.000 10.000 10.000 10.000 10.000 10.000 
10.000 10.000 10.000 10.000 10.000 10.000 
10.000 10.000 10.000 10.000 10.000 10.000 
10.000 10.000 10.000 10.000 10.000 10.000 
10.000 10.000 10.000 10.000 10.000 10.000 
10.000 10.000 10.000 10.000 10.000 10.000 
10.000 10.000 10.000 10.000 10.000 10.000 
10.000 10.000 10.000 10.000 10.000 10.000 
10.000 10.000 10.000 10.000 10.000 10.000 
10.000 10.000 10.000 10.000 10.000 10.000 
10.000 10.000 10.000 10.000 10.000 10.000 
10.000 10.000 10.000 10.000 10.000 10.000 
10.000 10.000 10.000 10.000 10.000 10.000 
10.000 10.000 10.000 10.000 10.000 10.000 
10.000 10.000 10.000 10.000 10.000 10.000 
10.000 10.000 10.000 10.000 10.000 10.000 
10.000 10.000 10.000 10.000 10.000 10.000 
10.000 10.000 10.000 10.000 10.000 10.000 
10.000 10.000 10.000 10.000 10.000 10.000 
10.000 10.000 10.000 10.000 10.000 10.000 